[33mWARNING: Skipping user bind, non existent bind point (file) in container: '/usr/bin/nvidia-smi'
[0m[33mWARNING: Skipping user bind, non existent bind point (file) in container: '/usr/bin/nvidia-debugdump'
[0m[33mWARNING: Skipping user bind, non existent bind point (file) in container: '/usr/bin/nvidia-persistenced'
[0m[33mWARNING: Skipping user bind, non existent bind point (file) in container: '/usr/bin/nvidia-cuda-mps-control'
[0m[33mWARNING: Skipping user bind, non existent bind point (file) in container: '/usr/bin/nvidia-cuda-mps-server'
[0mHOOMD-blue 2.3.5 CUDA (8.0) DOUBLE HPMC_MIXED TBB SSE SSE2 
Compiled: 10/08/18
Copyright 2009-2018 The Regents of the University of Michigan.
-----
You are using HOOMD-blue. Please cite the following:
* J A Anderson, C D Lorenz, and A Travesset. "General purpose molecular dynamics
  simulations fully implemented on graphics processing units", Journal of
  Computational Physics 227 (2008) 5342--5359
* J Glaser, T D Nguyen, J A Anderson, P Liu, F Spiga, J A Millan, D C Morse, and
  S C Glotzer. "Strong scaling of general-purpose molecular dynamics simulations
  on GPUs", Computer Physics Communications 192 (2015) 97--107
-----
notice(2): This system is not compute exclusive, using local rank to select GPUs
HOOMD-blue is running on the following GPU(s):
 [0]            Tesla K20m  13 SM_3.5 @ 0.706 GHz, 4743 MiB DRAM
Equilibrium_T_5_4.py:029  |  system = hoomd.init.read_snapshot(snap)
notice(2): Group "all" created containing 64256 particles
Equilibrium_T_5_4.py:033  |  rigid = hoomd.md.constrain.rigid();
notice(2): constrain.rigid(): Creating 64000 rigid bodies (adding 512000 particles)
Equilibrium_T_5_4.py:045  |  nl = hoomd.md.nlist.tree();
-----
You are using tree neighbor lists. Please cite the following:
* M P Howard, J A Anderson, A Nikoubashman, S C Glotzer, and A Z
  Panagiotopoulos. "Efficient neighbor list calculation for molecular simulation
  of colloidal systems using graphics processing units", Computer Physics
  Communications 203 (2016) 45--52
-----
Equilibrium_T_5_4.py:047  |  lj = hoomd.md.pair.lj(r_cut = 3.5, nlist = nl)
Equilibrium_T_5_4.py:048  |  lj.set_params(mode = 'shift')
Equilibrium_T_5_4.py:052  |  lj.pair_coeff.set('NP','NP', epsilon = 1.0, sigma = 5.0);
Equilibrium_T_5_4.py:053  |  lj.pair_coeff.set('M' ,'M' , epsilon = 1.0, sigma = 1.0);
Equilibrium_T_5_4.py:054  |  lj.pair_coeff.set('A' ,'A' , epsilon = 1.0, sigma = 1.0);
Equilibrium_T_5_4.py:055  |  lj.pair_coeff.set('M' ,'A' , epsilon = 1.0, sigma = 1.0);
Equilibrium_T_5_4.py:056  |  lj.pair_coeff.set('NP','M' , epsilon = 1.0, sigma = 3.0);
Equilibrium_T_5_4.py:057  |  lj.pair_coeff.set('NP','A' , epsilon = 1.0, sigma = 3.0);
Equilibrium_T_5_4.py:061  |  hoomd.md.integrate.mode_standard(dt = 0.005);
Equilibrium_T_5_4.py:065  |  nanoparticles = hoomd.group.type(name = 'Nano_Particles', type = 'NP');
notice(2): Group "Nano_Particles" created containing 256 particles
Equilibrium_T_5_4.py:066  |  mesogens = hoomd.group.rigid_center();
notice(2): Group "rigid_center" created containing 64000 particles
notice(2): Group "NP_Mes" created containing 64256 particles
Equilibrium_T_5_4.py:073  |  npt = hoomd.md.integrate.npt(group = groupNP_mes, kT = t_max, tau = 12.5, tauP = 12.5, P = p_max);
Equilibrium_T_5_4.py:081  |  log = hoomd.analyze.log(filename = log_file,
                         quantities = ['num_particles',
                                     'ndof',
                                     'translational_ndof',
                                     'rotational_ndof',
                                     'potential_energy',
                                     'kinetic_energy',
                                     'translational_kinetic_energy',
                                     'rotational_kinetic_energy',
                                     'temperature',
                                     'pressure',
                                      'volume'],
                         period = 1e3,
                         overwrite = True);
Equilibrium_T_5_4.py:097  |                 group = hoomd.group.all(),
Equilibrium_T_5_4.py:095  |  gsd = hoomd.dump.gsd(gsd_file,
               period = 1e3,
               group = hoomd.group.all(),
               overwrite = True); 
Equilibrium_T_5_4.py:099  |  meso_gsd = hoomd.dump.gsd(meso_gsd_file,
               period = 1e3,
               group = mesogens,
               overwrite = True); 
Equilibrium_T_5_4.py:108  |  hoomd.run(steps)
notice(2): -- Neighborlist exclusion statistics -- :
notice(2): Particles with 0 exclusions             : 576256
notice(2): Neighbors included by diameter          : no
notice(2): Neighbors excluded when in the same body: yes
** starting run **
Time 00:00:11 | Step 26 / 100000 | TPS 2.49407 | ETA 11:08:04
Time 00:00:21 | Step 75 / 100000 | TPS 4.882 | ETA 05:41:08
Time 00:00:31 | Step 130 / 100000 | TPS 5.31047 | ETA 05:13:26
Time 00:00:42 | Step 177 / 100000 | TPS 4.4551 | ETA 06:13:26
Time 00:00:52 | Step 210 / 100000 | TPS 3.23853 | ETA 08:33:33
Time 00:01:02 | Step 242 / 100000 | TPS 3.15192 | ETA 08:47:29
Time 00:01:13 | Step 278 / 100000 | TPS 3.45023 | ETA 08:01:43
Time 00:01:23 | Step 319 / 100000 | TPS 3.95875 | ETA 06:59:39
Time 00:01:33 | Step 361 / 100000 | TPS 4.06182 | ETA 06:48:50
Time 00:01:43 | Step 405 / 100000 | TPS 4.37141 | ETA 06:19:43
Time 00:01:54 | Step 449 / 100000 | TPS 4.32481 | ETA 06:23:38
Time 00:02:04 | Step 495 / 100000 | TPS 4.46281 | ETA 06:11:36
Time 00:02:14 | Step 540 / 100000 | TPS 4.48278 | ETA 06:09:47
Time 00:02:24 | Step 585 / 100000 | TPS 4.40298 | ETA 06:16:19
Time 00:02:35 | Step 631 / 100000 | TPS 4.44514 | ETA 06:12:34
Time 00:02:45 | Step 677 / 100000 | TPS 4.52396 | ETA 06:05:54
Time 00:02:55 | Step 723 / 100000 | TPS 4.44697 | ETA 06:12:04
Time 00:03:05 | Step 769 / 100000 | TPS 4.55991 | ETA 06:02:41
Time 00:03:15 | Step 815 / 100000 | TPS 4.44817 | ETA 06:11:37
Time 00:03:26 | Step 861 / 100000 | TPS 4.56936 | ETA 06:01:36
Time 00:03:36 | Step 907 / 100000 | TPS 4.46075 | ETA 06:10:14
Time 00:03:46 | Step 953 / 100000 | TPS 4.59078 | ETA 05:59:35
Time 00:03:57 | Step 1001 / 100000 | TPS 4.46501 | ETA 06:09:32
Time 00:04:07 | Step 1051 / 100000 | TPS 4.82538 | ETA 05:41:45
Time 00:04:17 | Step 1101 / 100000 | TPS 4.83465 | ETA 05:40:56
Time 00:04:28 | Step 1151 / 100000 | TPS 4.8393 | ETA 05:40:26
Time 00:04:38 | Step 1201 / 100000 | TPS 4.83249 | ETA 05:40:44
Time 00:04:48 | Step 1251 / 100000 | TPS 4.85627 | ETA 05:38:54
Time 00:04:59 | Step 1301 / 100000 | TPS 4.85412 | ETA 05:38:53
Time 00:05:09 | Step 1351 / 100000 | TPS 4.85086 | ETA 05:38:56
Time 00:05:19 | Step 1401 / 100000 | TPS 4.85978 | ETA 05:38:08
Time 00:05:29 | Step 1451 / 100000 | TPS 4.86008 | ETA 05:37:57
Time 00:05:40 | Step 1499 / 100000 | TPS 4.68447 | ETA 05:50:27
Time 00:05:50 | Step 1549 / 100000 | TPS 4.8543 | ETA 05:38:01
Time 00:06:00 | Step 1599 / 100000 | TPS 4.85524 | ETA 05:37:46
Time 00:06:11 | Step 1649 / 100000 | TPS 4.85003 | ETA 05:37:58
Time 00:06:21 | Step 1699 / 100000 | TPS 4.85557 | ETA 05:37:24
Time 00:06:31 | Step 1749 / 100000 | TPS 4.84779 | ETA 05:37:47
Time 00:06:42 | Step 1799 / 100000 | TPS 4.84477 | ETA 05:37:49
Time 00:06:52 | Step 1849 / 100000 | TPS 4.8484 | ETA 05:37:23
Time 00:07:02 | Step 1899 / 100000 | TPS 4.84619 | ETA 05:37:22
Time 00:07:13 | Step 1949 / 100000 | TPS 4.84625 | ETA 05:37:12
Time 00:07:23 | Step 1999 / 100000 | TPS 4.83959 | ETA 05:37:29
Time 00:07:33 | Step 2045 / 100000 | TPS 4.5133 | ETA 06:01:43
Time 00:07:43 | Step 2095 / 100000 | TPS 4.83632 | ETA 05:37:23
Time 00:07:54 | Step 2145 / 100000 | TPS 4.8412 | ETA 05:36:52
Time 00:08:04 | Step 2195 / 100000 | TPS 4.85657 | ETA 05:35:38
Time 00:08:14 | Step 2245 / 100000 | TPS 4.84381 | ETA 05:36:21
Time 00:08:25 | Step 2295 / 100000 | TPS 4.848 | ETA 05:35:53
Time 00:08:35 | Step 2345 / 100000 | TPS 4.85479 | ETA 05:35:15
Time 00:08:45 | Step 2395 / 100000 | TPS 4.85271 | ETA 05:35:13
Time 00:08:56 | Step 2445 / 100000 | TPS 4.85901 | ETA 05:34:37
Time 00:09:06 | Step 2495 / 100000 | TPS 4.87373 | ETA 05:33:26
Time 00:09:16 | Step 2545 / 100000 | TPS 4.87749 | ETA 05:33:00
Time 00:09:26 | Step 2595 / 100000 | TPS 4.88064 | ETA 05:32:37
Time 00:09:37 | Step 2645 / 100000 | TPS 4.88704 | ETA 05:32:01
Time 00:09:47 | Step 2695 / 100000 | TPS 4.88201 | ETA 05:32:11
Time 00:09:57 | Step 2745 / 100000 | TPS 4.8986 | ETA 05:30:53
Time 00:10:07 | Step 2795 / 100000 | TPS 4.89699 | ETA 05:30:49
Time 00:10:17 | Step 2845 / 100000 | TPS 4.89576 | ETA 05:30:44
Time 00:10:28 | Step 2895 / 100000 | TPS 4.88996 | ETA 05:30:58
Time 00:10:38 | Step 2945 / 100000 | TPS 4.89084 | ETA 05:30:44
Time 00:10:48 | Step 2995 / 100000 | TPS 4.89277 | ETA 05:30:26
Time 00:10:58 | Step 3041 / 100000 | TPS 4.56053 | ETA 05:54:20
Time 00:11:08 | Step 3091 / 100000 | TPS 4.8935 | ETA 05:30:03
Time 00:11:19 | Step 3141 / 100000 | TPS 4.89021 | ETA 05:30:06
Time 00:11:29 | Step 3191 / 100000 | TPS 4.88829 | ETA 05:30:04
Time 00:11:39 | Step 3241 / 100000 | TPS 4.88887 | ETA 05:29:51
Time 00:11:49 | Step 3291 / 100000 | TPS 4.88046 | ETA 05:30:15
Time 00:12:00 | Step 3341 / 100000 | TPS 4.88228 | ETA 05:29:57
Time 00:12:10 | Step 3391 / 100000 | TPS 4.88479 | ETA 05:29:37
Time 00:12:20 | Step 3441 / 100000 | TPS 4.87743 | ETA 05:29:57
Time 00:12:30 | Step 3491 / 100000 | TPS 4.87528 | ETA 05:29:55
Time 00:12:41 | Step 3541 / 100000 | TPS 4.87571 | ETA 05:29:43
Time 00:12:51 | Step 3589 / 100000 | TPS 4.70524 | ETA 05:41:30
Time 00:13:01 | Step 3639 / 100000 | TPS 4.87985 | ETA 05:29:06
Time 00:13:11 | Step 3689 / 100000 | TPS 4.87834 | ETA 05:29:02
Time 00:13:21 | Step 3739 / 100000 | TPS 4.88082 | ETA 05:28:42
Time 00:13:32 | Step 3789 / 100000 | TPS 4.8809 | ETA 05:28:31
Time 00:13:42 | Step 3839 / 100000 | TPS 4.88878 | ETA 05:27:49
Time 00:13:52 | Step 3889 / 100000 | TPS 4.89813 | ETA 05:27:01
Time 00:14:02 | Step 3939 / 100000 | TPS 4.90219 | ETA 05:26:35
Time 00:14:13 | Step 3989 / 100000 | TPS 4.90847 | ETA 05:26:00
Time 00:14:23 | Step 4035 / 100000 | TPS 4.56658 | ETA 05:50:14
Time 00:14:33 | Step 4085 / 100000 | TPS 4.90838 | ETA 05:25:41
Time 00:14:43 | Step 4135 / 100000 | TPS 4.92169 | ETA 05:24:38
Time 00:14:53 | Step 4185 / 100000 | TPS 4.91378 | ETA 05:24:59
Time 00:15:03 | Step 4235 / 100000 | TPS 4.91691 | ETA 05:24:36
Time 00:15:13 | Step 4285 / 100000 | TPS 4.92689 | ETA 05:23:47
Time 00:15:24 | Step 4335 / 100000 | TPS 4.92543 | ETA 05:23:42
Time 00:15:34 | Step 4385 / 100000 | TPS 4.92169 | ETA 05:23:47
Time 00:15:44 | Step 4435 / 100000 | TPS 4.91615 | ETA 05:23:58
Time 00:15:54 | Step 4485 / 100000 | TPS 4.91906 | ETA 05:23:37
Time 00:16:04 | Step 4535 / 100000 | TPS 4.91976 | ETA 05:23:24
Time 00:16:14 | Step 4585 / 100000 | TPS 4.92455 | ETA 05:22:55
Time 00:16:25 | Step 4635 / 100000 | TPS 4.92167 | ETA 05:22:56
Time 00:16:35 | Step 4685 / 100000 | TPS 4.90998 | ETA 05:23:32
Time 00:16:45 | Step 4735 / 100000 | TPS 4.91477 | ETA 05:23:03
Time 00:16:55 | Step 4785 / 100000 | TPS 4.9182 | ETA 05:22:39
Time 00:17:05 | Step 4835 / 100000 | TPS 4.91476 | ETA 05:22:43
Time 00:17:15 | Step 4885 / 100000 | TPS 4.91574 | ETA 05:22:29
Time 00:17:26 | Step 4935 / 100000 | TPS 4.91655 | ETA 05:22:15
Time 00:17:36 | Step 4985 / 100000 | TPS 4.90821 | ETA 05:22:38
Time 00:17:46 | Step 5031 / 100000 | TPS 4.56593 | ETA 05:46:39
Time 00:17:56 | Step 5081 / 100000 | TPS 4.89969 | ETA 05:22:52
Time 00:18:06 | Step 5131 / 100000 | TPS 4.90808 | ETA 05:22:09
Time 00:18:16 | Step 5181 / 100000 | TPS 4.91544 | ETA 05:21:30
Time 00:18:27 | Step 5231 / 100000 | TPS 4.91145 | ETA 05:21:35
Time 00:18:37 | Step 5281 / 100000 | TPS 4.90947 | ETA 05:21:33
Time 00:18:47 | Step 5331 / 100000 | TPS 4.91908 | ETA 05:20:45
Time 00:18:57 | Step 5381 / 100000 | TPS 4.91072 | ETA 05:21:07
Time 00:19:07 | Step 5431 / 100000 | TPS 4.9182 | ETA 05:20:28
Time 00:19:17 | Step 5481 / 100000 | TPS 4.93359 | ETA 05:19:18
Time 00:19:28 | Step 5531 / 100000 | TPS 4.93663 | ETA 05:18:56
Time 00:19:38 | Step 5581 / 100000 | TPS 4.93166 | ETA 05:19:05
Time 00:19:48 | Step 5631 / 100000 | TPS 4.94008 | ETA 05:18:22
Time 00:19:58 | Step 5681 / 100000 | TPS 4.92795 | ETA 05:18:59
Time 00:20:08 | Step 5731 / 100000 | TPS 4.93276 | ETA 05:18:30
Time 00:20:18 | Step 5781 / 100000 | TPS 4.94287 | ETA 05:17:41
Time 00:20:28 | Step 5831 / 100000 | TPS 4.94135 | ETA 05:17:37
Time 00:20:38 | Step 5881 / 100000 | TPS 4.93664 | ETA 05:17:45
Time 00:20:49 | Step 5931 / 100000 | TPS 4.94172 | ETA 05:17:15
Time 00:20:59 | Step 5981 / 100000 | TPS 4.9322 | ETA 05:17:42
Time 00:21:09 | Step 6027 / 100000 | TPS 4.59788 | ETA 05:40:38
Time 00:21:19 | Step 6077 / 100000 | TPS 4.93514 | ETA 05:17:11
Time 00:21:29 | Step 6127 / 100000 | TPS 4.93447 | ETA 05:17:03
Time 00:21:39 | Step 6177 / 100000 | TPS 4.93352 | ETA 05:16:57
Time 00:21:49 | Step 6227 / 100000 | TPS 4.92681 | ETA 05:17:13
Time 00:21:59 | Step 6277 / 100000 | TPS 4.92348 | ETA 05:17:15
Time 00:22:10 | Step 6327 / 100000 | TPS 4.92334 | ETA 05:17:06
Time 00:22:20 | Step 6377 / 100000 | TPS 4.92702 | ETA 05:16:41
Time 00:22:30 | Step 6427 / 100000 | TPS 4.92506 | ETA 05:16:39
Time 00:22:40 | Step 6477 / 100000 | TPS 4.93446 | ETA 05:15:53
Time 00:22:50 | Step 6527 / 100000 | TPS 4.92708 | ETA 05:16:11
Time 00:23:00 | Step 6577 / 100000 | TPS 4.92526 | ETA 05:16:08
Time 00:23:10 | Step 6627 / 100000 | TPS 4.92304 | ETA 05:16:06
Time 00:23:21 | Step 6677 / 100000 | TPS 4.92787 | ETA 05:15:37
Time 00:23:31 | Step 6727 / 100000 | TPS 4.92607 | ETA 05:15:34
Time 00:23:41 | Step 6777 / 100000 | TPS 4.93344 | ETA 05:14:56
Time 00:23:51 | Step 6827 / 100000 | TPS 4.92591 | ETA 05:15:14
Time 00:24:01 | Step 6877 / 100000 | TPS 4.9273 | ETA 05:14:59
Time 00:24:11 | Step 6927 / 100000 | TPS 4.93019 | ETA 05:14:38
Time 00:24:21 | Step 6977 / 100000 | TPS 4.93882 | ETA 05:13:55
Time 00:24:31 | Step 7023 / 100000 | TPS 4.59032 | ETA 05:37:35
Time 00:24:42 | Step 7073 / 100000 | TPS 4.94197 | ETA 05:13:23
Time 00:24:52 | Step 7123 / 100000 | TPS 4.94046 | ETA 05:13:19
Time 00:25:02 | Step 7173 / 100000 | TPS 4.93663 | ETA 05:13:23
Time 00:25:12 | Step 7223 / 100000 | TPS 4.93412 | ETA 05:13:23
Time 00:25:22 | Step 7273 / 100000 | TPS 4.95254 | ETA 05:12:03
Time 00:25:32 | Step 7323 / 100000 | TPS 4.94594 | ETA 05:12:18
Time 00:25:42 | Step 7373 / 100000 | TPS 4.94219 | ETA 05:12:22
Time 00:25:52 | Step 7423 / 100000 | TPS 4.93906 | ETA 05:12:23
Time 00:26:03 | Step 7473 / 100000 | TPS 4.94011 | ETA 05:12:09
Time 00:26:13 | Step 7523 / 100000 | TPS 4.93364 | ETA 05:12:24
Time 00:26:23 | Step 7573 / 100000 | TPS 4.93981 | ETA 05:11:50
Time 00:26:33 | Step 7623 / 100000 | TPS 4.93899 | ETA 05:11:43
Time 00:26:43 | Step 7673 / 100000 | TPS 4.93159 | ETA 05:12:01
Time 00:26:53 | Step 7723 / 100000 | TPS 4.92425 | ETA 05:12:19
Time 00:27:03 | Step 7773 / 100000 | TPS 4.92729 | ETA 05:11:57
Time 00:27:14 | Step 7823 / 100000 | TPS 4.9315 | ETA 05:11:31
Time 00:27:24 | Step 7873 / 100000 | TPS 4.93261 | ETA 05:11:17
Time 00:27:34 | Step 7923 / 100000 | TPS 4.93033 | ETA 05:11:15
Time 00:27:44 | Step 7973 / 100000 | TPS 4.92876 | ETA 05:11:11
Time 00:27:54 | Step 8019 / 100000 | TPS 4.58528 | ETA 05:34:20
Time 00:28:04 | Step 8069 / 100000 | TPS 4.92438 | ETA 05:11:08
Time 00:28:14 | Step 8119 / 100000 | TPS 4.92001 | ETA 05:11:14
Time 00:28:24 | Step 8169 / 100000 | TPS 4.92952 | ETA 05:10:28
Time 00:28:35 | Step 8219 / 100000 | TPS 4.93024 | ETA 05:10:15
Time 00:28:45 | Step 8269 / 100000 | TPS 4.92345 | ETA 05:10:31
Time 00:28:55 | Step 8319 / 100000 | TPS 4.92664 | ETA 05:10:09
Time 00:29:05 | Step 8369 / 100000 | TPS 4.92484 | ETA 05:10:05
Time 00:29:15 | Step 8419 / 100000 | TPS 4.91717 | ETA 05:10:24
Time 00:29:25 | Step 8469 / 100000 | TPS 4.93126 | ETA 05:09:21
Time 00:29:35 | Step 8519 / 100000 | TPS 4.93842 | ETA 05:08:44
Time 00:29:46 | Step 8569 / 100000 | TPS 4.91947 | ETA 05:09:45
Time 00:29:56 | Step 8619 / 100000 | TPS 4.93123 | ETA 05:08:51
Time 00:30:06 | Step 8669 / 100000 | TPS 4.9196 | ETA 05:09:24
Time 00:30:16 | Step 8719 / 100000 | TPS 4.91793 | ETA 05:09:20
Time 00:30:26 | Step 8769 / 100000 | TPS 4.93494 | ETA 05:08:06
Time 00:30:36 | Step 8819 / 100000 | TPS 4.92276 | ETA 05:08:42
Time 00:30:47 | Step 8869 / 100000 | TPS 4.92152 | ETA 05:08:36
Time 00:30:57 | Step 8919 / 100000 | TPS 4.92091 | ETA 05:08:28
Time 00:31:07 | Step 8969 / 100000 | TPS 4.91833 | ETA 05:08:28
Time 00:31:17 | Step 9015 / 100000 | TPS 4.57529 | ETA 05:31:26
Time 00:31:27 | Step 9065 / 100000 | TPS 4.93264 | ETA 05:07:15
Time 00:31:37 | Step 9115 / 100000 | TPS 4.9211 | ETA 05:07:48
Time 00:31:47 | Step 9165 / 100000 | TPS 4.91666 | ETA 05:07:54
Time 00:31:58 | Step 9215 / 100000 | TPS 4.91176 | ETA 05:08:03
Time 00:32:08 | Step 9265 / 100000 | TPS 4.91325 | ETA 05:07:47
Time 00:32:18 | Step 9315 / 100000 | TPS 4.9121 | ETA 05:07:41
Time 00:32:28 | Step 9365 / 100000 | TPS 4.91595 | ETA 05:07:16
Time 00:32:38 | Step 9415 / 100000 | TPS 4.91616 | ETA 05:07:05
Time 00:32:48 | Step 9465 / 100000 | TPS 4.90735 | ETA 05:07:28
Time 00:32:59 | Step 9515 / 100000 | TPS 4.90893 | ETA 05:07:12
Time 00:33:09 | Step 9565 / 100000 | TPS 4.90855 | ETA 05:07:03
Time 00:33:19 | Step 9615 / 100000 | TPS 4.90739 | ETA 05:06:58
Time 00:33:29 | Step 9665 / 100000 | TPS 4.92061 | ETA 05:05:58
Time 00:33:39 | Step 9715 / 100000 | TPS 4.91333 | ETA 05:06:15
Time 00:33:50 | Step 9765 / 100000 | TPS 4.91562 | ETA 05:05:56
Time 00:34:00 | Step 9815 / 100000 | TPS 4.90897 | ETA 05:06:11
Time 00:34:10 | Step 9865 / 100000 | TPS 4.89939 | ETA 05:06:37
Time 00:34:20 | Step 9915 / 100000 | TPS 4.89996 | ETA 05:06:24
Time 00:34:30 | Step 9965 / 100000 | TPS 4.90847 | ETA 05:05:42
Time 00:34:40 | Step 10011 / 100000 | TPS 4.56217 | ETA 05:28:45
Time 00:34:51 | Step 10061 / 100000 | TPS 4.90587 | ETA 05:05:32
Time 00:35:01 | Step 10111 / 100000 | TPS 4.89344 | ETA 05:06:09
Time 00:35:11 | Step 10161 / 100000 | TPS 4.89825 | ETA 05:05:41
Time 00:35:21 | Step 10211 / 100000 | TPS 4.88507 | ETA 05:06:20
Time 00:35:31 | Step 10261 / 100000 | TPS 4.89459 | ETA 05:05:34
Time 00:35:42 | Step 10311 / 100000 | TPS 4.89481 | ETA 05:05:23
Time 00:35:52 | Step 10361 / 100000 | TPS 4.90093 | ETA 05:04:50
Time 00:36:02 | Step 10411 / 100000 | TPS 4.89338 | ETA 05:05:08
Time 00:36:12 | Step 10461 / 100000 | TPS 4.88998 | ETA 05:05:10
Time 00:36:23 | Step 10511 / 100000 | TPS 4.88452 | ETA 05:05:20
Time 00:36:33 | Step 10561 / 100000 | TPS 4.8993 | ETA 05:04:15
Time 00:36:43 | Step 10611 / 100000 | TPS 4.8969 | ETA 05:04:14
Time 00:36:53 | Step 10661 / 100000 | TPS 4.89302 | ETA 05:04:18
Time 00:37:03 | Step 10711 / 100000 | TPS 4.88737 | ETA 05:04:29
Time 00:37:14 | Step 10761 / 100000 | TPS 4.88197 | ETA 05:04:39
Time 00:37:24 | Step 10811 / 100000 | TPS 4.88072 | ETA 05:04:33
Time 00:37:34 | Step 10861 / 100000 | TPS 4.89517 | ETA 05:03:29
Time 00:37:44 | Step 10911 / 100000 | TPS 4.89184 | ETA 05:03:31
Time 00:37:55 | Step 10961 / 100000 | TPS 4.8813 | ETA 05:04:00
Time 00:38:05 | Step 11007 / 100000 | TPS 4.54694 | ETA 05:26:12
Time 00:38:15 | Step 11057 / 100000 | TPS 4.88246 | ETA 05:03:36
Time 00:38:25 | Step 11107 / 100000 | TPS 4.87526 | ETA 05:03:53
Time 00:38:35 | Step 11157 / 100000 | TPS 4.89254 | ETA 05:02:38
Time 00:38:46 | Step 11207 / 100000 | TPS 4.88465 | ETA 05:02:57
Time 00:38:56 | Step 11257 / 100000 | TPS 4.87706 | ETA 05:03:16
Time 00:39:06 | Step 11307 / 100000 | TPS 4.87725 | ETA 05:03:05
Time 00:39:16 | Step 11357 / 100000 | TPS 4.87547 | ETA 05:03:01
Time 00:39:27 | Step 11407 / 100000 | TPS 4.86987 | ETA 05:03:12
Time 00:39:37 | Step 11457 / 100000 | TPS 4.87999 | ETA 05:02:24
Time 00:39:47 | Step 11507 / 100000 | TPS 4.87141 | ETA 05:02:45
Time 00:39:57 | Step 11557 / 100000 | TPS 4.86747 | ETA 05:02:50
Time 00:40:08 | Step 11607 / 100000 | TPS 4.8679 | ETA 05:02:38
Time 00:40:18 | Step 11657 / 100000 | TPS 4.86504 | ETA 05:02:38
Time 00:40:28 | Step 11707 / 100000 | TPS 4.86113 | ETA 05:02:43
Time 00:40:39 | Step 11757 / 100000 | TPS 4.87694 | ETA 05:01:33
Time 00:40:49 | Step 11807 / 100000 | TPS 4.86914 | ETA 05:01:52
Time 00:40:59 | Step 11857 / 100000 | TPS 4.86005 | ETA 05:02:16
Time 00:41:09 | Step 11907 / 100000 | TPS 4.86543 | ETA 05:01:45
Time 00:41:20 | Step 11957 / 100000 | TPS 4.86357 | ETA 05:01:42
Time 00:41:30 | Step 12003 / 100000 | TPS 4.51926 | ETA 05:24:31
Time 00:41:40 | Step 12053 / 100000 | TPS 4.86525 | ETA 05:01:16
Time 00:41:50 | Step 12103 / 100000 | TPS 4.87222 | ETA 05:00:40
Time 00:42:01 | Step 12153 / 100000 | TPS 4.85957 | ETA 05:01:17
Time 00:42:11 | Step 12203 / 100000 | TPS 4.85568 | ETA 05:01:21
Time 00:42:21 | Step 12253 / 100000 | TPS 4.85522 | ETA 05:01:12
Time 00:42:32 | Step 12303 / 100000 | TPS 4.84702 | ETA 05:01:32
Time 00:42:42 | Step 12353 / 100000 | TPS 4.85977 | ETA 05:00:35
Time 00:42:52 | Step 12403 / 100000 | TPS 4.8639 | ETA 05:00:09
Time 00:43:02 | Step 12453 / 100000 | TPS 4.85265 | ETA 05:00:41
Time 00:43:13 | Step 12503 / 100000 | TPS 4.84908 | ETA 05:00:44
Time 00:43:23 | Step 12553 / 100000 | TPS 4.84137 | ETA 05:01:02
Time 00:43:33 | Step 12603 / 100000 | TPS 4.83543 | ETA 05:01:14
Time 00:43:44 | Step 12653 / 100000 | TPS 4.85466 | ETA 04:59:52
Time 00:43:54 | Step 12703 / 100000 | TPS 4.85377 | ETA 04:59:45
Time 00:44:04 | Step 12753 / 100000 | TPS 4.84329 | ETA 05:00:13
Time 00:44:15 | Step 12799 / 100000 | TPS 4.49604 | ETA 05:23:15
Time 00:44:25 | Step 12849 / 100000 | TPS 4.83551 | ETA 05:00:23
Time 00:44:35 | Step 12899 / 100000 | TPS 4.83144 | ETA 05:00:27
Time 00:44:46 | Step 12949 / 100000 | TPS 4.84083 | ETA 04:59:42
Time 00:44:56 | Step 12999 / 100000 | TPS 4.84221 | ETA 04:59:27
Time 00:45:06 | Step 13045 / 100000 | TPS 4.49924 | ETA 05:22:06
Time 00:45:17 | Step 13095 / 100000 | TPS 4.83044 | ETA 04:59:51
Time 00:45:27 | Step 13145 / 100000 | TPS 4.82573 | ETA 04:59:58
Time 00:45:37 | Step 13195 / 100000 | TPS 4.81953 | ETA 05:00:11
Time 00:45:48 | Step 13245 / 100000 | TPS 4.83236 | ETA 04:59:12
Time 00:45:58 | Step 13295 / 100000 | TPS 4.83106 | ETA 04:59:07
Time 00:46:08 | Step 13345 / 100000 | TPS 4.82908 | ETA 04:59:04
Time 00:46:19 | Step 13395 / 100000 | TPS 4.82136 | ETA 04:59:22
Time 00:46:29 | Step 13445 / 100000 | TPS 4.82283 | ETA 04:59:06
Time 00:46:39 | Step 13495 / 100000 | TPS 4.81886 | ETA 04:59:11
Time 00:46:50 | Step 13545 / 100000 | TPS 4.81589 | ETA 04:59:12
Time 00:47:00 | Step 13595 / 100000 | TPS 4.82398 | ETA 04:58:31
Time 00:47:11 | Step 13645 / 100000 | TPS 4.8218 | ETA 04:58:29
Time 00:47:21 | Step 13695 / 100000 | TPS 4.81908 | ETA 04:58:29
Time 00:47:31 | Step 13745 / 100000 | TPS 4.81676 | ETA 04:58:27
Time 00:47:41 | Step 13794 / 100000 | TPS 4.89472 | ETA 04:53:32
Time 00:47:52 | Step 13843 / 100000 | TPS 4.73187 | ETA 05:03:27
Time 00:48:02 | Step 13893 / 100000 | TPS 4.81431 | ETA 04:58:05
Time 00:48:12 | Step 13942 / 100000 | TPS 4.89945 | ETA 04:52:44
Time 00:48:22 | Step 13991 / 100000 | TPS 4.72728 | ETA 05:03:14
Time 00:48:33 | Step 14037 / 100000 | TPS 4.47171 | ETA 05:20:23
Time 00:48:43 | Step 14086 / 100000 | TPS 4.89415 | ETA 04:52:34
Time 00:48:53 | Step 14135 / 100000 | TPS 4.7285 | ETA 05:02:39
Time 00:49:03 | Step 14184 / 100000 | TPS 4.89878 | ETA 04:51:57
Time 00:49:13 | Step 14233 / 100000 | TPS 4.72057 | ETA 05:02:48
Time 00:49:23 | Step 14281 / 100000 | TPS 4.79934 | ETA 04:57:40
Time 00:49:33 | Step 14330 / 100000 | TPS 4.88919 | ETA 04:52:02
Time 00:49:44 | Step 14379 / 100000 | TPS 4.724 | ETA 05:02:04
Time 00:49:54 | Step 14427 / 100000 | TPS 4.79957 | ETA 04:57:09
Time 00:50:04 | Step 14476 / 100000 | TPS 4.89898 | ETA 04:50:57
Time 00:50:14 | Step 14525 / 100000 | TPS 4.72909 | ETA 05:01:14
Time 00:50:24 | Step 14574 / 100000 | TPS 4.88662 | ETA 04:51:21
Time 00:50:34 | Step 14622 / 100000 | TPS 4.79635 | ETA 04:56:40
Time 00:50:44 | Step 14669 / 100000 | TPS 4.69926 | ETA 05:02:38
Time 00:50:54 | Step 14717 / 100000 | TPS 4.78619 | ETA 04:56:58
Time 00:51:04 | Step 14765 / 100000 | TPS 4.79919 | ETA 04:56:00
Time 00:51:14 | Step 14813 / 100000 | TPS 4.79109 | ETA 04:56:20
Time 00:51:24 | Step 14861 / 100000 | TPS 4.78653 | ETA 04:56:27
Time 00:51:34 | Step 14909 / 100000 | TPS 4.78031 | ETA 04:56:40
Time 00:51:44 | Step 14957 / 100000 | TPS 4.78071 | ETA 04:56:28
Time 00:51:55 | Step 15003 / 100000 | TPS 4.44973 | ETA 05:18:21
Time 00:52:05 | Step 15051 / 100000 | TPS 4.79628 | ETA 04:55:11
Time 00:52:15 | Step 15099 / 100000 | TPS 4.78284 | ETA 04:55:51
Time 00:52:25 | Step 15147 / 100000 | TPS 4.78155 | ETA 04:55:45
Time 00:52:35 | Step 15195 / 100000 | TPS 4.77877 | ETA 04:55:46
Time 00:52:45 | Step 15243 / 100000 | TPS 4.7724 | ETA 04:55:59
Time 00:52:55 | Step 15291 / 100000 | TPS 4.78558 | ETA 04:55:00
Time 00:53:05 | Step 15339 / 100000 | TPS 4.78682 | ETA 04:54:46
Time 00:53:15 | Step 15387 / 100000 | TPS 4.78 | ETA 04:55:01
Time 00:53:25 | Step 15435 / 100000 | TPS 4.77266 | ETA 04:55:18
Time 00:53:35 | Step 15483 / 100000 | TPS 4.77403 | ETA 04:55:03
Time 00:53:45 | Step 15531 / 100000 | TPS 4.76722 | ETA 04:55:18
Time 00:53:55 | Step 15579 / 100000 | TPS 4.76762 | ETA 04:55:07
Time 00:54:05 | Step 15627 / 100000 | TPS 4.7714 | ETA 04:54:43
Time 00:54:15 | Step 15675 / 100000 | TPS 4.77618 | ETA 04:54:15
Time 00:54:25 | Step 15723 / 100000 | TPS 4.76708 | ETA 04:54:38
Time 00:54:36 | Step 15771 / 100000 | TPS 4.766 | ETA 04:54:32
Time 00:54:46 | Step 15819 / 100000 | TPS 4.75989 | ETA 04:54:45
Time 00:54:56 | Step 15867 / 100000 | TPS 4.75866 | ETA 04:54:39
Time 00:55:06 | Step 15915 / 100000 | TPS 4.76162 | ETA 04:54:18
Time 00:55:16 | Step 15963 / 100000 | TPS 4.77681 | ETA 04:53:12
Time 00:55:26 | Step 16009 / 100000 | TPS 4.44571 | ETA 05:14:52
Time 00:55:36 | Step 16057 / 100000 | TPS 4.76314 | ETA 04:53:43
Time 00:55:46 | Step 16105 / 100000 | TPS 4.76487 | ETA 04:53:26
Time 00:55:56 | Step 16153 / 100000 | TPS 4.75859 | ETA 04:53:40
Time 00:56:07 | Step 16201 / 100000 | TPS 4.75077 | ETA 04:53:59
Time 00:56:17 | Step 16249 / 100000 | TPS 4.77634 | ETA 04:52:14
Time 00:56:27 | Step 16297 / 100000 | TPS 4.76201 | ETA 04:52:57
Time 00:56:37 | Step 16345 / 100000 | TPS 4.75908 | ETA 04:52:57
Time 00:56:47 | Step 16393 / 100000 | TPS 4.76093 | ETA 04:52:41
Time 00:56:57 | Step 16441 / 100000 | TPS 4.75323 | ETA 04:52:59
Time 00:57:07 | Step 16489 / 100000 | TPS 4.75684 | ETA 04:52:35
Time 00:57:17 | Step 16537 / 100000 | TPS 4.75507 | ETA 04:52:32
Time 00:57:27 | Step 16585 / 100000 | TPS 4.75951 | ETA 04:52:05
Time 00:57:37 | Step 16633 / 100000 | TPS 4.75541 | ETA 04:52:10
Time 00:57:47 | Step 16681 / 100000 | TPS 4.74744 | ETA 04:52:30
Time 00:57:57 | Step 16729 / 100000 | TPS 4.75289 | ETA 04:52:00
Time 00:58:08 | Step 16777 / 100000 | TPS 4.74755 | ETA 04:52:09
Time 00:58:18 | Step 16825 / 100000 | TPS 4.74392 | ETA 04:52:12
Time 00:58:28 | Step 16873 / 100000 | TPS 4.7617 | ETA 04:50:57
Time 00:58:38 | Step 16921 / 100000 | TPS 4.74927 | ETA 04:51:32
Time 00:58:48 | Step 16967 / 100000 | TPS 4.57598 | ETA 05:02:25
Time 00:58:58 | Step 17012 / 100000 | TPS 4.49776 | ETA 05:07:30
Time 00:59:08 | Step 17059 / 100000 | TPS 4.65625 | ETA 04:56:52
Time 00:59:18 | Step 17107 / 100000 | TPS 4.74668 | ETA 04:51:03
Time 00:59:28 | Step 17155 / 100000 | TPS 4.76034 | ETA 04:50:03
Time 00:59:38 | Step 17203 / 100000 | TPS 4.75558 | ETA 04:50:10
Time 00:59:48 | Step 17251 / 100000 | TPS 4.75188 | ETA 04:50:13
Time 00:59:59 | Step 17299 / 100000 | TPS 4.74847 | ETA 04:50:16
Time 01:00:09 | Step 17345 / 100000 | TPS 4.57449 | ETA 05:01:08
Time 01:00:19 | Step 17393 / 100000 | TPS 4.74183 | ETA 04:50:20
Time 01:00:29 | Step 17441 / 100000 | TPS 4.74647 | ETA 04:49:53
Time 01:00:39 | Step 17489 / 100000 | TPS 4.74956 | ETA 04:49:32
Time 01:00:49 | Step 17537 / 100000 | TPS 4.74934 | ETA 04:49:23
Time 01:00:59 | Step 17585 / 100000 | TPS 4.74346 | ETA 04:49:34
Time 01:01:09 | Step 17633 / 100000 | TPS 4.73931 | ETA 04:49:39
Time 01:01:19 | Step 17681 / 100000 | TPS 4.73897 | ETA 04:49:30
Time 01:01:30 | Step 17729 / 100000 | TPS 4.72768 | ETA 04:50:01
Time 01:01:40 | Step 17777 / 100000 | TPS 4.73485 | ETA 04:49:25
Time 01:01:50 | Step 17825 / 100000 | TPS 4.73893 | ETA 04:49:00
Time 01:02:00 | Step 17873 / 100000 | TPS 4.7289 | ETA 04:49:27
Time 01:02:10 | Step 17921 / 100000 | TPS 4.73436 | ETA 04:48:56
Time 01:02:20 | Step 17969 / 100000 | TPS 4.72867 | ETA 04:49:07
Time 01:02:30 | Step 18013 / 100000 | TPS 4.39203 | ETA 05:11:07
Time 01:02:40 | Step 18061 / 100000 | TPS 4.74128 | ETA 04:48:02
Time 01:02:51 | Step 18109 / 100000 | TPS 4.74136 | ETA 04:47:51
Time 01:03:01 | Step 18157 / 100000 | TPS 4.73658 | ETA 04:47:58
Time 01:03:11 | Step 18205 / 100000 | TPS 4.73695 | ETA 04:47:47
Time 01:03:21 | Step 18253 / 100000 | TPS 4.73703 | ETA 04:47:37
Time 01:03:31 | Step 18301 / 100000 | TPS 4.73038 | ETA 04:47:51
Time 01:03:41 | Step 18349 / 100000 | TPS 4.73906 | ETA 04:47:09
Time 01:03:51 | Step 18397 / 100000 | TPS 4.73776 | ETA 04:47:03
Time 01:04:01 | Step 18443 / 100000 | TPS 4.56238 | ETA 04:57:55
Time 01:04:12 | Step 18491 / 100000 | TPS 4.72718 | ETA 04:47:22
Time 01:04:22 | Step 18539 / 100000 | TPS 4.72227 | ETA 04:47:30
Time 01:04:32 | Step 18587 / 100000 | TPS 4.71868 | ETA 04:47:33
Time 01:04:42 | Step 18635 / 100000 | TPS 4.72803 | ETA 04:46:49
Time 01:04:52 | Step 18683 / 100000 | TPS 4.72795 | ETA 04:46:39
Time 01:05:02 | Step 18731 / 100000 | TPS 4.7307 | ETA 04:46:19
Time 01:05:13 | Step 18779 / 100000 | TPS 4.72388 | ETA 04:46:33
Time 01:05:23 | Step 18827 / 100000 | TPS 4.72299 | ETA 04:46:26
Time 01:05:33 | Step 18875 / 100000 | TPS 4.7186 | ETA 04:46:32
Time 01:05:43 | Step 18923 / 100000 | TPS 4.72411 | ETA 04:46:02
Time 01:05:53 | Step 18971 / 100000 | TPS 4.72703 | ETA 04:45:41
Time 01:06:03 | Step 19015 / 100000 | TPS 4.38778 | ETA 05:07:36
Time 01:06:13 | Step 19063 / 100000 | TPS 4.72177 | ETA 04:45:41
Time 01:06:24 | Step 19111 / 100000 | TPS 4.7162 | ETA 04:45:51
Time 01:06:34 | Step 19159 / 100000 | TPS 4.71299 | ETA 04:45:52
Time 01:06:44 | Step 19207 / 100000 | TPS 4.71076 | ETA 04:45:50
Time 01:06:54 | Step 19255 / 100000 | TPS 4.72699 | ETA 04:44:41
Time 01:07:04 | Step 19303 / 100000 | TPS 4.73011 | ETA 04:44:20
Time 01:07:14 | Step 19351 / 100000 | TPS 4.7334 | ETA 04:43:58
Time 01:07:25 | Step 19399 / 100000 | TPS 4.72385 | ETA 04:44:22
Time 01:07:35 | Step 19447 / 100000 | TPS 4.72517 | ETA 04:44:07
Time 01:07:45 | Step 19495 / 100000 | TPS 4.7225 | ETA 04:44:07
Time 01:07:55 | Step 19543 / 100000 | TPS 4.72749 | ETA 04:43:38
Time 01:08:05 | Step 19591 / 100000 | TPS 4.7268 | ETA 04:43:31
Time 01:08:15 | Step 19639 / 100000 | TPS 4.72489 | ETA 04:43:28
Time 01:08:26 | Step 19687 / 100000 | TPS 4.71602 | ETA 04:43:49
Time 01:08:36 | Step 19735 / 100000 | TPS 4.72669 | ETA 04:43:01
Time 01:08:46 | Step 19783 / 100000 | TPS 4.72568 | ETA 04:42:54
Time 01:08:56 | Step 19831 / 100000 | TPS 4.72616 | ETA 04:42:42
Time 01:09:06 | Step 19879 / 100000 | TPS 4.73204 | ETA 04:42:11
Time 01:09:16 | Step 19927 / 100000 | TPS 4.72872 | ETA 04:42:13
Time 01:09:26 | Step 19975 / 100000 | TPS 4.72752 | ETA 04:42:07
Time 01:09:36 | Step 20019 / 100000 | TPS 4.38574 | ETA 05:03:56
Time 01:09:47 | Step 20067 / 100000 | TPS 4.72246 | ETA 04:42:06
Time 01:09:57 | Step 20115 / 100000 | TPS 4.7242 | ETA 04:41:49
Time 01:10:07 | Step 20163 / 100000 | TPS 4.73245 | ETA 04:41:10
Time 01:10:17 | Step 20211 / 100000 | TPS 4.73299 | ETA 04:40:58
Time 01:10:27 | Step 20259 / 100000 | TPS 4.72607 | ETA 04:41:12
Time 01:10:37 | Step 20307 / 100000 | TPS 4.71775 | ETA 04:41:32
Time 01:10:48 | Step 20353 / 100000 | TPS 4.54115 | ETA 04:52:18
Time 01:10:58 | Step 20392 / 100000 | TPS 3.89131 | ETA 05:40:57
Time 01:11:08 | Step 20439 / 100000 | TPS 4.56858 | ETA 04:50:14
Time 01:11:18 | Step 20487 / 100000 | TPS 4.7222 | ETA 04:40:38
Time 01:11:28 | Step 20535 / 100000 | TPS 4.71325 | ETA 04:40:59
Time 01:11:38 | Step 20583 / 100000 | TPS 4.71918 | ETA 04:40:28
Time 01:11:49 | Step 20631 / 100000 | TPS 4.7112 | ETA 04:40:46
Time 01:11:59 | Step 20679 / 100000 | TPS 4.71351 | ETA 04:40:28
Time 01:12:09 | Step 20727 / 100000 | TPS 4.71671 | ETA 04:40:06
Time 01:12:19 | Step 20775 / 100000 | TPS 4.72738 | ETA 04:39:18
Time 01:12:29 | Step 20823 / 100000 | TPS 4.71474 | ETA 04:39:53
Time 01:12:39 | Step 20871 / 100000 | TPS 4.71917 | ETA 04:39:27
Time 01:12:50 | Step 20919 / 100000 | TPS 4.71232 | ETA 04:39:41
Time 01:13:00 | Step 20967 / 100000 | TPS 4.71199 | ETA 04:39:32
Time 01:13:10 | Step 21011 / 100000 | TPS 4.38174 | ETA 05:00:26
Time 01:13:20 | Step 21059 / 100000 | TPS 4.72946 | ETA 04:38:11
Time 01:13:30 | Step 21107 / 100000 | TPS 4.72001 | ETA 04:38:34
Time 01:13:40 | Step 21155 / 100000 | TPS 4.71682 | ETA 04:38:35
Time 01:13:51 | Step 21203 / 100000 | TPS 4.71024 | ETA 04:38:48
Time 01:14:01 | Step 21251 / 100000 | TPS 4.71034 | ETA 04:38:38
Time 01:14:11 | Step 21299 / 100000 | TPS 4.70696 | ETA 04:38:40
Time 01:14:21 | Step 21347 / 100000 | TPS 4.71974 | ETA 04:37:44
Time 01:14:31 | Step 21395 / 100000 | TPS 4.72663 | ETA 04:37:10
Time 01:14:41 | Step 21443 / 100000 | TPS 4.71616 | ETA 04:37:36
Time 01:14:52 | Step 21491 / 100000 | TPS 4.71014 | ETA 04:37:48
Time 01:15:02 | Step 21539 / 100000 | TPS 4.72065 | ETA 04:37:00
Time 01:15:12 | Step 21587 / 100000 | TPS 4.71953 | ETA 04:36:54
Time 01:15:22 | Step 21635 / 100000 | TPS 4.72298 | ETA 04:36:32
Time 01:15:32 | Step 21683 / 100000 | TPS 4.72416 | ETA 04:36:17
Time 01:15:42 | Step 21731 / 100000 | TPS 4.71893 | ETA 04:36:26
Time 01:15:53 | Step 21779 / 100000 | TPS 4.72699 | ETA 04:35:47
Time 01:16:03 | Step 21827 / 100000 | TPS 4.72228 | ETA 04:35:54
Time 01:16:13 | Step 21875 / 100000 | TPS 4.71841 | ETA 04:35:57
Time 01:16:23 | Step 21923 / 100000 | TPS 4.71768 | ETA 04:35:49
Time 01:16:33 | Step 21971 / 100000 | TPS 4.73057 | ETA 04:34:54
Time 01:16:43 | Step 22015 / 100000 | TPS 4.38835 | ETA 04:56:10
Time 01:16:53 | Step 22063 / 100000 | TPS 4.72038 | ETA 04:35:10
Time 01:17:04 | Step 22111 / 100000 | TPS 4.71853 | ETA 04:35:07
Time 01:17:14 | Step 22159 / 100000 | TPS 4.72114 | ETA 04:34:47
Time 01:17:24 | Step 22207 / 100000 | TPS 4.7182 | ETA 04:34:47
Time 01:17:34 | Step 22255 / 100000 | TPS 4.73332 | ETA 04:33:45
Time 01:17:44 | Step 22303 / 100000 | TPS 4.7286 | ETA 04:33:51
Time 01:17:54 | Step 22351 / 100000 | TPS 4.71832 | ETA 04:34:16
Time 01:18:05 | Step 22399 / 100000 | TPS 4.72604 | ETA 04:33:39
Time 01:18:15 | Step 22447 / 100000 | TPS 4.72511 | ETA 04:33:32
Time 01:18:25 | Step 22495 / 100000 | TPS 4.71799 | ETA 04:33:47
Time 01:18:35 | Step 22543 / 100000 | TPS 4.72709 | ETA 04:33:05
Time 01:18:45 | Step 22591 / 100000 | TPS 4.73222 | ETA 04:32:37
Time 01:18:55 | Step 22639 / 100000 | TPS 4.72546 | ETA 04:32:51
Time 01:19:06 | Step 22687 / 100000 | TPS 4.72372 | ETA 04:32:46
Time 01:19:16 | Step 22735 / 100000 | TPS 4.72048 | ETA 04:32:48
Time 01:19:26 | Step 22783 / 100000 | TPS 4.72328 | ETA 04:32:28
Time 01:19:36 | Step 22831 / 100000 | TPS 4.72183 | ETA 04:32:23
Time 01:19:46 | Step 22879 / 100000 | TPS 4.73066 | ETA 04:31:42
Time 01:19:56 | Step 22927 / 100000 | TPS 4.73385 | ETA 04:31:21
Time 01:20:06 | Step 22975 / 100000 | TPS 4.73481 | ETA 04:31:07
Time 01:20:16 | Step 23019 / 100000 | TPS 4.38148 | ETA 04:52:49
Time 01:20:27 | Step 23067 / 100000 | TPS 4.72751 | ETA 04:31:13
Time 01:20:37 | Step 23115 / 100000 | TPS 4.72387 | ETA 04:31:15
Time 01:20:47 | Step 23163 / 100000 | TPS 4.73639 | ETA 04:30:22
Time 01:20:57 | Step 23211 / 100000 | TPS 4.73451 | ETA 04:30:18
Time 01:21:07 | Step 23259 / 100000 | TPS 4.72563 | ETA 04:30:39
Time 01:21:17 | Step 23307 / 100000 | TPS 4.72753 | ETA 04:30:22
Time 01:21:28 | Step 23355 / 100000 | TPS 4.72902 | ETA 04:30:07
Time 01:21:38 | Step 23403 / 100000 | TPS 4.72135 | ETA 04:30:23
Time 01:21:48 | Step 23451 / 100000 | TPS 4.73441 | ETA 04:29:28
Time 01:21:58 | Step 23499 / 100000 | TPS 4.72811 | ETA 04:29:40
Time 01:22:08 | Step 23547 / 100000 | TPS 4.72847 | ETA 04:29:28
Time 01:22:18 | Step 23595 / 100000 | TPS 4.73166 | ETA 04:29:07
Time 01:22:28 | Step 23643 / 100000 | TPS 4.73205 | ETA 04:28:56
Time 01:22:39 | Step 23691 / 100000 | TPS 4.73492 | ETA 04:28:36
Time 01:22:49 | Step 23739 / 100000 | TPS 4.73071 | ETA 04:28:40
Time 01:22:59 | Step 23787 / 100000 | TPS 4.73458 | ETA 04:28:17
Time 01:23:09 | Step 23835 / 100000 | TPS 4.73064 | ETA 04:28:20
Time 01:23:19 | Step 23883 / 100000 | TPS 4.72743 | ETA 04:28:21
Time 01:23:29 | Step 23927 / 100000 | TPS 4.3963 | ETA 04:48:23
Time 01:23:39 | Step 23975 / 100000 | TPS 4.73327 | ETA 04:27:41
Time 01:23:49 | Step 24019 / 100000 | TPS 4.39442 | ETA 04:48:10
Time 01:23:59 | Step 24067 / 100000 | TPS 4.74355 | ETA 04:26:47
Time 01:24:10 | Step 24115 / 100000 | TPS 4.74072 | ETA 04:26:47
Time 01:24:20 | Step 24163 / 100000 | TPS 4.73489 | ETA 04:26:56
Time 01:24:30 | Step 24211 / 100000 | TPS 4.73667 | ETA 04:26:40
Time 01:24:40 | Step 24259 / 100000 | TPS 4.74514 | ETA 04:26:01
Time 01:24:50 | Step 24307 / 100000 | TPS 4.74263 | ETA 04:26:00
Time 01:25:00 | Step 24355 / 100000 | TPS 4.75797 | ETA 04:24:58
Time 01:25:10 | Step 24403 / 100000 | TPS 4.74331 | ETA 04:25:37
Time 01:25:20 | Step 24451 / 100000 | TPS 4.74073 | ETA 04:25:36
Time 01:25:31 | Step 24499 / 100000 | TPS 4.74107 | ETA 04:25:24
Time 01:25:41 | Step 24547 / 100000 | TPS 4.7413 | ETA 04:25:13
Time 01:25:51 | Step 24595 / 100000 | TPS 4.74355 | ETA 04:24:56
Time 01:26:01 | Step 24643 / 100000 | TPS 4.74144 | ETA 04:24:53
Time 01:26:11 | Step 24691 / 100000 | TPS 4.74825 | ETA 04:24:20
Time 01:26:21 | Step 24739 / 100000 | TPS 4.74621 | ETA 04:24:17
Time 01:26:31 | Step 24787 / 100000 | TPS 4.74831 | ETA 04:23:59
Time 01:26:41 | Step 24835 / 100000 | TPS 4.75281 | ETA 04:23:34
Time 01:26:51 | Step 24883 / 100000 | TPS 4.74013 | ETA 04:24:07
Time 01:27:02 | Step 24931 / 100000 | TPS 4.742 | ETA 04:23:50
Time 01:27:12 | Step 24979 / 100000 | TPS 4.75972 | ETA 04:22:41
Time 01:27:22 | Step 25025 / 100000 | TPS 4.43432 | ETA 04:41:47
Time 01:27:32 | Step 25073 / 100000 | TPS 4.74127 | ETA 04:23:23
Time 01:27:42 | Step 25121 / 100000 | TPS 4.74653 | ETA 04:22:55
Time 01:27:52 | Step 25169 / 100000 | TPS 4.74599 | ETA 04:22:47
Time 01:28:02 | Step 25217 / 100000 | TPS 4.74757 | ETA 04:22:31
Time 01:28:13 | Step 25265 / 100000 | TPS 4.75311 | ETA 04:22:03
Time 01:28:23 | Step 25313 / 100000 | TPS 4.75176 | ETA 04:21:57
Time 01:28:33 | Step 25361 / 100000 | TPS 4.75592 | ETA 04:21:33
Time 01:28:43 | Step 25409 / 100000 | TPS 4.75359 | ETA 04:21:31
Time 01:28:53 | Step 25457 / 100000 | TPS 4.74478 | ETA 04:21:50
Time 01:29:03 | Step 25505 / 100000 | TPS 4.74691 | ETA 04:21:33
Time 01:29:13 | Step 25553 / 100000 | TPS 4.76139 | ETA 04:20:35
Time 01:29:23 | Step 25601 / 100000 | TPS 4.75771 | ETA 04:20:37
Time 01:29:33 | Step 25649 / 100000 | TPS 4.76078 | ETA 04:20:17
Time 01:29:43 | Step 25697 / 100000 | TPS 4.76369 | ETA 04:19:57
Time 01:29:54 | Step 25745 / 100000 | TPS 4.75896 | ETA 04:20:03
Time 01:30:04 | Step 25793 / 100000 | TPS 4.7531 | ETA 04:20:12
Time 01:30:14 | Step 25841 / 100000 | TPS 4.76951 | ETA 04:19:08
Time 01:30:24 | Step 25889 / 100000 | TPS 4.76674 | ETA 04:19:07
Time 01:30:34 | Step 25937 / 100000 | TPS 4.76404 | ETA 04:19:06
Time 01:30:44 | Step 25985 / 100000 | TPS 4.77011 | ETA 04:18:36
Time 01:30:54 | Step 26031 / 100000 | TPS 4.43942 | ETA 04:37:41
Time 01:31:04 | Step 26079 / 100000 | TPS 4.76837 | ETA 04:18:22
Time 01:31:14 | Step 26127 / 100000 | TPS 4.76634 | ETA 04:18:18
Time 01:31:24 | Step 26175 / 100000 | TPS 4.77355 | ETA 04:17:45
Time 01:31:34 | Step 26223 / 100000 | TPS 4.77776 | ETA 04:17:21
Time 01:31:45 | Step 26271 / 100000 | TPS 4.77027 | ETA 04:17:35
Time 01:31:55 | Step 26319 / 100000 | TPS 4.76413 | ETA 04:17:45
Time 01:32:05 | Step 26367 / 100000 | TPS 4.75836 | ETA 04:17:54
Time 01:32:15 | Step 26415 / 100000 | TPS 4.75958 | ETA 04:17:40
Time 01:32:25 | Step 26463 / 100000 | TPS 4.77039 | ETA 04:16:55
Time 01:32:35 | Step 26511 / 100000 | TPS 4.76928 | ETA 04:16:48
Time 01:32:45 | Step 26559 / 100000 | TPS 4.77127 | ETA 04:16:32
Time 01:32:55 | Step 26607 / 100000 | TPS 4.77348 | ETA 04:16:15
Time 01:33:05 | Step 26655 / 100000 | TPS 4.76751 | ETA 04:16:24
Time 01:33:15 | Step 26703 / 100000 | TPS 4.76161 | ETA 04:16:33
Time 01:33:25 | Step 26751 / 100000 | TPS 4.78118 | ETA 04:15:20
Time 01:33:35 | Step 26799 / 100000 | TPS 4.78257 | ETA 04:15:05
Time 01:33:45 | Step 26847 / 100000 | TPS 4.76956 | ETA 04:15:37
Time 01:33:55 | Step 26895 / 100000 | TPS 4.76587 | ETA 04:15:39
Time 01:34:05 | Step 26943 / 100000 | TPS 4.76747 | ETA 04:15:24
Time 01:34:16 | Step 26991 / 100000 | TPS 4.76896 | ETA 04:15:09
Time 01:34:26 | Step 27037 / 100000 | TPS 4.46022 | ETA 04:32:38
Time 01:34:36 | Step 27085 / 100000 | TPS 4.78635 | ETA 04:13:53
Time 01:34:46 | Step 27133 / 100000 | TPS 4.7873 | ETA 04:13:40
Time 01:34:56 | Step 27181 / 100000 | TPS 4.78604 | ETA 04:13:34
Time 01:35:06 | Step 27229 / 100000 | TPS 4.78122 | ETA 04:13:40
Time 01:35:16 | Step 27277 / 100000 | TPS 4.78403 | ETA 04:13:21
Time 01:35:26 | Step 27325 / 100000 | TPS 4.77486 | ETA 04:13:40
Time 01:35:36 | Step 27373 / 100000 | TPS 4.78022 | ETA 04:13:13
Time 01:35:46 | Step 27421 / 100000 | TPS 4.78342 | ETA 04:12:53
Time 01:35:56 | Step 27469 / 100000 | TPS 4.78126 | ETA 04:12:49
Time 01:36:06 | Step 27517 / 100000 | TPS 4.77897 | ETA 04:12:47
Time 01:36:16 | Step 27565 / 100000 | TPS 4.77564 | ETA 04:12:47
Time 01:36:26 | Step 27613 / 100000 | TPS 4.77436 | ETA 04:12:41
Time 01:36:36 | Step 27661 / 100000 | TPS 4.79113 | ETA 04:11:38
Time 01:36:46 | Step 27709 / 100000 | TPS 4.78963 | ETA 04:11:33
Time 01:36:56 | Step 27757 / 100000 | TPS 4.78226 | ETA 04:11:46
Time 01:37:06 | Step 27805 / 100000 | TPS 4.77691 | ETA 04:11:53
Time 01:37:16 | Step 27853 / 100000 | TPS 4.78059 | ETA 04:11:31
Time 01:37:27 | Step 27901 / 100000 | TPS 4.7694 | ETA 04:11:56
Time 01:37:37 | Step 27949 / 100000 | TPS 4.7909 | ETA 04:10:39
Time 01:37:47 | Step 27997 / 100000 | TPS 4.79355 | ETA 04:10:20
Time 01:37:57 | Step 28043 / 100000 | TPS 4.46231 | ETA 04:28:45
Time 01:38:07 | Step 28091 / 100000 | TPS 4.79139 | ETA 04:10:07
Time 01:38:17 | Step 28139 / 100000 | TPS 4.78639 | ETA 04:10:13
Time 01:38:27 | Step 28187 / 100000 | TPS 4.78763 | ETA 04:09:59
Time 01:38:37 | Step 28235 / 100000 | TPS 4.78774 | ETA 04:09:49
Time 01:38:47 | Step 28283 / 100000 | TPS 4.79273 | ETA 04:09:23
Time 01:38:57 | Step 28331 / 100000 | TPS 4.79389 | ETA 04:09:10
Time 01:39:07 | Step 28379 / 100000 | TPS 4.79797 | ETA 04:08:47
Time 01:39:17 | Step 28427 / 100000 | TPS 4.79338 | ETA 04:08:51
Time 01:39:27 | Step 28475 / 100000 | TPS 4.79132 | ETA 04:08:48
Time 01:39:37 | Step 28523 / 100000 | TPS 4.79845 | ETA 04:08:15
Time 01:39:47 | Step 28572 / 100000 | TPS 4.88868 | ETA 04:03:30
Time 01:39:57 | Step 28621 / 100000 | TPS 4.72284 | ETA 04:11:53
Time 01:40:07 | Step 28669 / 100000 | TPS 4.79604 | ETA 04:07:52
Time 01:40:17 | Step 28718 / 100000 | TPS 4.88637 | ETA 04:03:07
Time 01:40:28 | Step 28767 / 100000 | TPS 4.71727 | ETA 04:11:40
Time 01:40:38 | Step 28816 / 100000 | TPS 4.89159 | ETA 04:02:32
Time 01:40:48 | Step 28865 / 100000 | TPS 4.72833 | ETA 04:10:44
Time 01:40:58 | Step 28914 / 100000 | TPS 4.89567 | ETA 04:02:00
Time 01:41:09 | Step 28963 / 100000 | TPS 4.73024 | ETA 04:10:17
Time 01:41:19 | Step 29009 / 100000 | TPS 4.47295 | ETA 04:24:31
Time 01:41:29 | Step 29058 / 100000 | TPS 4.88987 | ETA 04:01:47
Time 01:41:39 | Step 29106 / 100000 | TPS 4.79813 | ETA 04:06:15
Time 01:41:49 | Step 29155 / 100000 | TPS 4.733 | ETA 04:09:28
Time 01:41:59 | Step 29204 / 100000 | TPS 4.89753 | ETA 04:00:55
Time 01:42:10 | Step 29253 / 100000 | TPS 4.72357 | ETA 04:09:37
Time 01:42:20 | Step 29302 / 100000 | TPS 4.8909 | ETA 04:00:55
Time 01:42:30 | Step 29351 / 100000 | TPS 4.72513 | ETA 04:09:11
Time 01:42:40 | Step 29400 / 100000 | TPS 4.89005 | ETA 04:00:37
Time 01:42:50 | Step 29449 / 100000 | TPS 4.72731 | ETA 04:08:44
Time 01:43:01 | Step 29499 / 100000 | TPS 4.81858 | ETA 04:03:51
Time 01:43:11 | Step 29548 / 100000 | TPS 4.89117 | ETA 04:00:03
Time 01:43:21 | Step 29597 / 100000 | TPS 4.72856 | ETA 04:08:08
Time 01:43:31 | Step 29646 / 100000 | TPS 4.89863 | ETA 03:59:21
Time 01:43:42 | Step 29695 / 100000 | TPS 4.72227 | ETA 04:08:07
Time 01:43:52 | Step 29745 / 100000 | TPS 4.81567 | ETA 04:03:08
Time 01:44:02 | Step 29795 / 100000 | TPS 4.81811 | ETA 04:02:51
Time 01:44:13 | Step 29845 / 100000 | TPS 4.81501 | ETA 04:02:50
Time 01:44:23 | Step 29894 / 100000 | TPS 4.89305 | ETA 03:58:47
Time 01:44:33 | Step 29943 / 100000 | TPS 4.72406 | ETA 04:07:09
Time 01:44:43 | Step 29992 / 100000 | TPS 4.89809 | ETA 03:58:12
Time 01:44:53 | Step 30037 / 100000 | TPS 4.40076 | ETA 04:24:57
Time 01:45:04 | Step 30087 / 100000 | TPS 4.81525 | ETA 04:01:59
Time 01:45:14 | Step 30136 / 100000 | TPS 4.8979 | ETA 03:57:44
Time 01:45:24 | Step 30185 / 100000 | TPS 4.73176 | ETA 04:05:54
Time 01:45:34 | Step 30235 / 100000 | TPS 4.82059 | ETA 04:01:12
Time 01:45:45 | Step 30285 / 100000 | TPS 4.81717 | ETA 04:01:12
Time 01:45:55 | Step 30335 / 100000 | TPS 4.81435 | ETA 04:01:10
Time 01:46:06 | Step 30385 / 100000 | TPS 4.83208 | ETA 04:00:06
Time 01:46:16 | Step 30435 / 100000 | TPS 4.82768 | ETA 04:00:09
Time 01:46:26 | Step 30485 / 100000 | TPS 4.82219 | ETA 04:00:15
Time 01:46:36 | Step 30534 / 100000 | TPS 4.89999 | ETA 03:56:16
Time 01:46:47 | Step 30583 / 100000 | TPS 4.73637 | ETA 04:04:16
Time 01:46:57 | Step 30633 / 100000 | TPS 4.82394 | ETA 03:59:39
Time 01:47:07 | Step 30683 / 100000 | TPS 4.82893 | ETA 03:59:14
Time 01:47:18 | Step 30733 / 100000 | TPS 4.82328 | ETA 03:59:20
Time 01:47:28 | Step 30783 / 100000 | TPS 4.82342 | ETA 03:59:10
Time 01:47:38 | Step 30833 / 100000 | TPS 4.8153 | ETA 03:59:24
Time 01:47:49 | Step 30883 / 100000 | TPS 4.81582 | ETA 03:59:12
Time 01:47:59 | Step 30933 / 100000 | TPS 4.82481 | ETA 03:58:34
Time 01:48:10 | Step 30983 / 100000 | TPS 4.8322 | ETA 03:58:02
Time 01:48:20 | Step 31029 / 100000 | TPS 4.50041 | ETA 04:15:25
Time 01:48:30 | Step 31079 / 100000 | TPS 4.82645 | ETA 03:57:59
Time 01:48:41 | Step 31129 / 100000 | TPS 4.82706 | ETA 03:57:47
Time 01:48:51 | Step 31179 / 100000 | TPS 4.82346 | ETA 03:57:47
Time 01:49:01 | Step 31229 / 100000 | TPS 4.82232 | ETA 03:57:40
Time 01:49:12 | Step 31279 / 100000 | TPS 4.83381 | ETA 03:56:56
Time 01:49:22 | Step 31329 / 100000 | TPS 4.8388 | ETA 03:56:31
Time 01:49:32 | Step 31379 / 100000 | TPS 4.82838 | ETA 03:56:52
Time 01:49:43 | Step 31429 / 100000 | TPS 4.82103 | ETA 03:57:03
Time 01:49:53 | Step 31479 / 100000 | TPS 4.81651 | ETA 03:57:06
Time 01:50:03 | Step 31529 / 100000 | TPS 4.82663 | ETA 03:56:26
Time 01:50:14 | Step 31579 / 100000 | TPS 4.83561 | ETA 03:55:49
Time 01:50:24 | Step 31629 / 100000 | TPS 4.83456 | ETA 03:55:42
Time 01:50:34 | Step 31679 / 100000 | TPS 4.83237 | ETA 03:55:38
Time 01:50:45 | Step 31729 / 100000 | TPS 4.82853 | ETA 03:55:39
Time 01:50:55 | Step 31779 / 100000 | TPS 4.82938 | ETA 03:55:26
Time 01:51:05 | Step 31829 / 100000 | TPS 4.82636 | ETA 03:55:24
Time 01:51:16 | Step 31879 / 100000 | TPS 4.84072 | ETA 03:54:32
Time 01:51:26 | Step 31929 / 100000 | TPS 4.83941 | ETA 03:54:25
Time 01:51:37 | Step 31979 / 100000 | TPS 4.82708 | ETA 03:54:51
Time 01:51:47 | Step 32025 / 100000 | TPS 4.48953 | ETA 04:12:20
Time 01:51:57 | Step 32075 / 100000 | TPS 4.83547 | ETA 03:54:07
Time 01:52:07 | Step 32125 / 100000 | TPS 4.83286 | ETA 03:54:04
Time 01:52:18 | Step 32175 / 100000 | TPS 4.8361 | ETA 03:53:44
Time 01:52:28 | Step 32225 / 100000 | TPS 4.83453 | ETA 03:53:38
Time 01:52:38 | Step 32275 / 100000 | TPS 4.83188 | ETA 03:53:36
Time 01:52:49 | Step 32325 / 100000 | TPS 4.83658 | ETA 03:53:12
Time 01:52:59 | Step 32375 / 100000 | TPS 4.83496 | ETA 03:53:06
Time 01:53:09 | Step 32425 / 100000 | TPS 4.82814 | ETA 03:53:16
Time 01:53:20 | Step 32475 / 100000 | TPS 4.83795 | ETA 03:52:37
Time 01:53:30 | Step 32525 / 100000 | TPS 4.83609 | ETA 03:52:32
Time 01:53:41 | Step 32575 / 100000 | TPS 4.83587 | ETA 03:52:22
Time 01:53:51 | Step 32625 / 100000 | TPS 4.82898 | ETA 03:52:32
Time 01:54:01 | Step 32675 / 100000 | TPS 4.82723 | ETA 03:52:26
Time 01:54:12 | Step 32725 / 100000 | TPS 4.82339 | ETA 03:52:27
Time 01:54:22 | Step 32775 / 100000 | TPS 4.83855 | ETA 03:51:33
Time 01:54:32 | Step 32825 / 100000 | TPS 4.83669 | ETA 03:51:28
Time 01:54:43 | Step 32875 / 100000 | TPS 4.8321 | ETA 03:51:31
Time 01:54:53 | Step 32925 / 100000 | TPS 4.82919 | ETA 03:51:29
Time 01:55:03 | Step 32975 / 100000 | TPS 4.82714 | ETA 03:51:25
Time 01:55:14 | Step 33021 / 100000 | TPS 4.49729 | ETA 04:08:13
Time 01:55:24 | Step 33071 / 100000 | TPS 4.84239 | ETA 03:50:21
Time 01:55:34 | Step 33121 / 100000 | TPS 4.83547 | ETA 03:50:30
Time 01:55:45 | Step 33171 / 100000 | TPS 4.83906 | ETA 03:50:10
Time 01:55:55 | Step 33221 / 100000 | TPS 4.83493 | ETA 03:50:11
Time 01:56:05 | Step 33271 / 100000 | TPS 4.83609 | ETA 03:49:58
Time 01:56:16 | Step 33321 / 100000 | TPS 4.8415 | ETA 03:49:32
Time 01:56:26 | Step 33371 / 100000 | TPS 4.843 | ETA 03:49:17
Time 01:56:36 | Step 33421 / 100000 | TPS 4.84213 | ETA 03:49:09
Time 01:56:47 | Step 33471 / 100000 | TPS 4.83741 | ETA 03:49:13
Time 01:56:57 | Step 33521 / 100000 | TPS 4.83594 | ETA 03:49:06
Time 01:57:07 | Step 33570 / 100000 | TPS 4.75094 | ETA 03:53:02
Time 01:57:18 | Step 33619 / 100000 | TPS 4.74378 | ETA 03:53:13
Time 01:57:28 | Step 33669 / 100000 | TPS 4.84242 | ETA 03:48:17
Time 01:57:38 | Step 33719 / 100000 | TPS 4.84192 | ETA 03:48:08
Time 01:57:49 | Step 33769 / 100000 | TPS 4.83853 | ETA 03:48:08
Time 01:57:59 | Step 33819 / 100000 | TPS 4.83385 | ETA 03:48:11
Time 01:58:09 | Step 33869 / 100000 | TPS 4.82925 | ETA 03:48:13
Time 01:58:20 | Step 33919 / 100000 | TPS 4.83213 | ETA 03:47:55
Time 01:58:30 | Step 33969 / 100000 | TPS 4.84164 | ETA 03:47:18
Time 01:58:40 | Step 34015 / 100000 | TPS 4.49516 | ETA 04:04:39
Time 01:58:50 | Step 34065 / 100000 | TPS 4.83515 | ETA 03:47:16
Time 01:59:01 | Step 34115 / 100000 | TPS 4.82936 | ETA 03:47:22
Time 01:59:11 | Step 34165 / 100000 | TPS 4.82721 | ETA 03:47:18
Time 01:59:22 | Step 34215 / 100000 | TPS 4.8356 | ETA 03:46:44
Time 01:59:32 | Step 34265 / 100000 | TPS 4.84368 | ETA 03:46:11
Time 01:59:42 | Step 34315 / 100000 | TPS 4.83807 | ETA 03:46:16
Time 01:59:53 | Step 34365 / 100000 | TPS 4.83405 | ETA 03:46:17
Time 02:00:03 | Step 34415 / 100000 | TPS 4.83169 | ETA 03:46:13
Time 02:00:13 | Step 34465 / 100000 | TPS 4.82764 | ETA 03:46:14
Time 02:00:24 | Step 34515 / 100000 | TPS 4.82622 | ETA 03:46:08
Time 02:00:34 | Step 34565 / 100000 | TPS 4.83337 | ETA 03:45:38
Time 02:00:44 | Step 34615 / 100000 | TPS 4.83159 | ETA 03:45:32
Time 02:00:55 | Step 34665 / 100000 | TPS 4.82878 | ETA 03:45:30
Time 02:01:05 | Step 34715 / 100000 | TPS 4.82574 | ETA 03:45:28
Time 02:01:15 | Step 34765 / 100000 | TPS 4.82868 | ETA 03:45:09
Time 02:01:26 | Step 34815 / 100000 | TPS 4.82651 | ETA 03:45:05
Time 02:01:36 | Step 34865 / 100000 | TPS 4.84027 | ETA 03:44:16
Time 02:01:46 | Step 34915 / 100000 | TPS 4.84 | ETA 03:44:07
Time 02:01:57 | Step 34965 / 100000 | TPS 4.83056 | ETA 03:44:23
Time 02:02:07 | Step 35011 / 100000 | TPS 4.49312 | ETA 04:01:04
Time 02:02:17 | Step 35061 / 100000 | TPS 4.83258 | ETA 03:43:57
Time 02:02:28 | Step 35111 / 100000 | TPS 4.82655 | ETA 03:44:04
Time 02:02:38 | Step 35161 / 100000 | TPS 4.84273 | ETA 03:43:08
Time 02:02:48 | Step 35211 / 100000 | TPS 4.83699 | ETA 03:43:14
Time 02:02:59 | Step 35261 / 100000 | TPS 4.83736 | ETA 03:43:03
Time 02:03:09 | Step 35311 / 100000 | TPS 4.84115 | ETA 03:42:42
Time 02:03:19 | Step 35361 / 100000 | TPS 4.83671 | ETA 03:42:44
Time 02:03:30 | Step 35411 / 100000 | TPS 4.83232 | ETA 03:42:46
Time 02:03:40 | Step 35461 / 100000 | TPS 4.83562 | ETA 03:42:26
Time 02:03:50 | Step 35511 / 100000 | TPS 4.83261 | ETA 03:42:24
Time 02:04:01 | Step 35561 / 100000 | TPS 4.83616 | ETA 03:42:04
Time 02:04:11 | Step 35611 / 100000 | TPS 4.82944 | ETA 03:42:12
Time 02:04:21 | Step 35661 / 100000 | TPS 4.82835 | ETA 03:42:05
Time 02:04:32 | Step 35711 / 100000 | TPS 4.82332 | ETA 03:42:08
Time 02:04:42 | Step 35761 / 100000 | TPS 4.83223 | ETA 03:41:33
Time 02:04:52 | Step 35811 / 100000 | TPS 4.82976 | ETA 03:41:30
Time 02:05:03 | Step 35861 / 100000 | TPS 4.82468 | ETA 03:41:33
Time 02:05:13 | Step 35911 / 100000 | TPS 4.82523 | ETA 03:41:22
Time 02:05:24 | Step 35961 / 100000 | TPS 4.81938 | ETA 03:41:27
Time 02:05:34 | Step 36007 / 100000 | TPS 4.47539 | ETA 03:58:18
Time 02:05:44 | Step 36057 / 100000 | TPS 4.83609 | ETA 03:40:22
Time 02:05:55 | Step 36107 / 100000 | TPS 4.82859 | ETA 03:40:32
Time 02:06:05 | Step 36157 / 100000 | TPS 4.82363 | ETA 03:40:35
Time 02:06:15 | Step 36207 / 100000 | TPS 4.82014 | ETA 03:40:34
Time 02:06:25 | Step 36256 / 100000 | TPS 4.89876 | ETA 03:36:52
Time 02:06:36 | Step 36305 / 100000 | TPS 4.72663 | ETA 03:44:35
Time 02:06:46 | Step 36355 / 100000 | TPS 4.83664 | ETA 03:39:18
Time 02:06:56 | Step 36405 / 100000 | TPS 4.83351 | ETA 03:39:17
Time 02:07:07 | Step 36455 / 100000 | TPS 4.8211 | ETA 03:39:40
Time 02:07:17 | Step 36505 / 100000 | TPS 4.82868 | ETA 03:39:09
Time 02:07:27 | Step 36555 / 100000 | TPS 4.82072 | ETA 03:39:20
Time 02:07:38 | Step 36605 / 100000 | TPS 4.81746 | ETA 03:39:19
Time 02:07:48 | Step 36655 / 100000 | TPS 4.83352 | ETA 03:38:25
Time 02:07:59 | Step 36705 / 100000 | TPS 4.82626 | ETA 03:38:34
Time 02:08:09 | Step 36755 / 100000 | TPS 4.8243 | ETA 03:38:29
Time 02:08:19 | Step 36805 / 100000 | TPS 4.82382 | ETA 03:38:20
Time 02:08:30 | Step 36855 / 100000 | TPS 4.82515 | ETA 03:38:06
Time 02:08:40 | Step 36905 / 100000 | TPS 4.82033 | ETA 03:38:09
Time 02:08:50 | Step 36955 / 100000 | TPS 4.83077 | ETA 03:37:30
Time 02:09:01 | Step 37001 / 100000 | TPS 4.49303 | ETA 03:53:41
Time 02:09:11 | Step 37051 / 100000 | TPS 4.82528 | ETA 03:37:25
Time 02:09:21 | Step 37101 / 100000 | TPS 4.82988 | ETA 03:37:02
Time 02:09:32 | Step 37151 / 100000 | TPS 4.82094 | ETA 03:37:16
Time 02:09:42 | Step 37201 / 100000 | TPS 4.8123 | ETA 03:37:29
Time 02:09:52 | Step 37251 / 100000 | TPS 4.82772 | ETA 03:36:37
Time 02:10:03 | Step 37301 / 100000 | TPS 4.82323 | ETA 03:36:39
Time 02:10:13 | Step 37351 / 100000 | TPS 4.81974 | ETA 03:36:38
Time 02:10:23 | Step 37400 / 100000 | TPS 4.8962 | ETA 03:33:05
Time 02:10:33 | Step 37449 / 100000 | TPS 4.73053 | ETA 03:40:22
Time 02:10:44 | Step 37498 / 100000 | TPS 4.89716 | ETA 03:32:42
Time 02:10:54 | Step 37547 / 100000 | TPS 4.73848 | ETA 03:39:39
Time 02:11:04 | Step 37597 / 100000 | TPS 4.82331 | ETA 03:35:37
Time 02:11:14 | Step 37646 / 100000 | TPS 4.89799 | ETA 03:32:10
Time 02:11:25 | Step 37695 / 100000 | TPS 4.73174 | ETA 03:39:27
Time 02:11:35 | Step 37744 / 100000 | TPS 4.89707 | ETA 03:31:52
Time 02:11:45 | Step 37793 / 100000 | TPS 4.72993 | ETA 03:39:11
Time 02:11:55 | Step 37843 / 100000 | TPS 4.8157 | ETA 03:35:07
Time 02:12:06 | Step 37893 / 100000 | TPS 4.82478 | ETA 03:34:32
Time 02:12:16 | Step 37943 / 100000 | TPS 4.82189 | ETA 03:34:29
Time 02:12:26 | Step 37992 / 100000 | TPS 4.89433 | ETA 03:31:09
Time 02:12:36 | Step 38037 / 100000 | TPS 4.39695 | ETA 03:54:52
Time 02:12:46 | Step 38086 / 100000 | TPS 4.89878 | ETA 03:30:38
Time 02:12:57 | Step 38135 / 100000 | TPS 4.73559 | ETA 03:37:43
Time 02:13:07 | Step 38185 / 100000 | TPS 4.81741 | ETA 03:33:51
Time 02:13:17 | Step 38234 / 100000 | TPS 4.89945 | ETA 03:30:06
Time 02:13:27 | Step 38283 / 100000 | TPS 4.73331 | ETA 03:37:18
Time 02:13:37 | Step 38332 / 100000 | TPS 4.89826 | ETA 03:29:49
Time 02:13:48 | Step 38381 / 100000 | TPS 4.73615 | ETA 03:36:50
Time 02:13:58 | Step 38431 / 100000 | TPS 4.81605 | ETA 03:33:04
Time 02:14:08 | Step 38480 / 100000 | TPS 4.89819 | ETA 03:29:19
Time 02:14:18 | Step 38529 / 100000 | TPS 4.73253 | ETA 03:36:29
Time 02:14:29 | Step 38579 / 100000 | TPS 4.81387 | ETA 03:32:39
Time 02:14:39 | Step 38628 / 100000 | TPS 4.89495 | ETA 03:28:57
Time 02:14:49 | Step 38677 / 100000 | TPS 4.72761 | ETA 03:36:11
Time 02:14:59 | Step 38726 / 100000 | TPS 4.89618 | ETA 03:28:34
Time 02:15:10 | Step 38775 / 100000 | TPS 4.73377 | ETA 03:35:33
Time 02:15:20 | Step 38824 / 100000 | TPS 4.89858 | ETA 03:28:08
Time 02:15:30 | Step 38873 / 100000 | TPS 4.72813 | ETA 03:35:28
Time 02:15:40 | Step 38922 / 100000 | TPS 4.88984 | ETA 03:28:10
Time 02:15:50 | Step 38971 / 100000 | TPS 4.7242 | ETA 03:35:18
Time 02:16:01 | Step 39017 / 100000 | TPS 4.47591 | ETA 03:47:04
Time 02:16:11 | Step 39067 / 100000 | TPS 4.81787 | ETA 03:30:47
Time 02:16:21 | Step 39116 / 100000 | TPS 4.89633 | ETA 03:27:14
Time 02:16:31 | Step 39165 / 100000 | TPS 4.72639 | ETA 03:34:31
Time 02:16:41 | Step 39214 / 100000 | TPS 4.89154 | ETA 03:27:06
Time 02:16:52 | Step 39263 / 100000 | TPS 4.72848 | ETA 03:34:04
Time 02:17:02 | Step 39312 / 100000 | TPS 4.88798 | ETA 03:26:55
Time 02:17:12 | Step 39361 / 100000 | TPS 4.72141 | ETA 03:34:03
Time 02:17:22 | Step 39410 / 100000 | TPS 4.88686 | ETA 03:26:38
Time 02:17:32 | Step 39458 / 100000 | TPS 4.79945 | ETA 03:30:14
Time 02:17:42 | Step 39506 / 100000 | TPS 4.79755 | ETA 03:30:09
Time 02:17:52 | Step 39554 / 100000 | TPS 4.79949 | ETA 03:29:54
Time 02:18:02 | Step 39602 / 100000 | TPS 4.7933 | ETA 03:30:00
Time 02:18:13 | Step 39651 / 100000 | TPS 4.72606 | ETA 03:32:49
Time 02:18:23 | Step 39700 / 100000 | TPS 4.88832 | ETA 03:25:35
Time 02:18:33 | Step 39748 / 100000 | TPS 4.79705 | ETA 03:29:20
Time 02:18:43 | Step 39797 / 100000 | TPS 4.72067 | ETA 03:32:33
Time 02:18:53 | Step 39846 / 100000 | TPS 4.88695 | ETA 03:25:09
Time 02:19:03 | Step 39894 / 100000 | TPS 4.79364 | ETA 03:28:58
Time 02:19:13 | Step 39943 / 100000 | TPS 4.72563 | ETA 03:31:48
Time 02:19:23 | Step 39992 / 100000 | TPS 4.89471 | ETA 03:24:19
Time 02:19:34 | Step 40037 / 100000 | TPS 4.3843 | ETA 03:47:56
Time 02:19:44 | Step 40086 / 100000 | TPS 4.88753 | ETA 03:24:18
Time 02:19:54 | Step 40134 / 100000 | TPS 4.79827 | ETA 03:27:56
Time 02:20:04 | Step 40182 / 100000 | TPS 4.79619 | ETA 03:27:51
Time 02:20:14 | Step 40230 / 100000 | TPS 4.79195 | ETA 03:27:53
Time 02:20:24 | Step 40278 / 100000 | TPS 4.79932 | ETA 03:27:23
Time 02:20:34 | Step 40326 / 100000 | TPS 4.7964 | ETA 03:27:21
Time 02:20:44 | Step 40374 / 100000 | TPS 4.78974 | ETA 03:27:28
Time 02:20:54 | Step 40419 / 100000 | TPS 4.46272 | ETA 03:42:30
Time 02:21:04 | Step 40459 / 100000 | TPS 3.89016 | ETA 04:15:05
Time 02:21:14 | Step 40507 / 100000 | TPS 4.77362 | ETA 03:27:42
Time 02:21:24 | Step 40555 / 100000 | TPS 4.79732 | ETA 03:26:31
Time 02:21:34 | Step 40603 / 100000 | TPS 4.78764 | ETA 03:26:46
Time 02:21:44 | Step 40651 / 100000 | TPS 4.79157 | ETA 03:26:26
Time 02:21:54 | Step 40699 / 100000 | TPS 4.79507 | ETA 03:26:07
Time 02:22:04 | Step 40747 / 100000 | TPS 4.78306 | ETA 03:26:28
Time 02:22:14 | Step 40795 / 100000 | TPS 4.78209 | ETA 03:26:20
Time 02:22:24 | Step 40843 / 100000 | TPS 4.78805 | ETA 03:25:55
Time 02:22:34 | Step 40891 / 100000 | TPS 4.78681 | ETA 03:25:48
Time 02:22:44 | Step 40939 / 100000 | TPS 4.77913 | ETA 03:25:58
Time 02:22:54 | Step 40987 / 100000 | TPS 4.78753 | ETA 03:25:26
Time 02:23:05 | Step 41033 / 100000 | TPS 4.46019 | ETA 03:40:20
Time 02:23:15 | Step 41081 / 100000 | TPS 4.7838 | ETA 03:25:16
Time 02:23:25 | Step 41129 / 100000 | TPS 4.78356 | ETA 03:25:06
Time 02:23:35 | Step 41177 / 100000 | TPS 4.79177 | ETA 03:24:35
Time 02:23:45 | Step 41225 / 100000 | TPS 4.794 | ETA 03:24:20
Time 02:23:55 | Step 41273 / 100000 | TPS 4.78573 | ETA 03:24:31
Time 02:24:05 | Step 41321 / 100000 | TPS 4.78206 | ETA 03:24:30
Time 02:24:15 | Step 41369 / 100000 | TPS 4.78759 | ETA 03:24:06
Time 02:24:25 | Step 41417 / 100000 | TPS 4.7753 | ETA 03:24:27
Time 02:24:35 | Step 41465 / 100000 | TPS 4.79233 | ETA 03:23:34
Time 02:24:45 | Step 41513 / 100000 | TPS 4.78778 | ETA 03:23:35
Time 02:24:55 | Step 41561 / 100000 | TPS 4.78367 | ETA 03:23:36
Time 02:25:05 | Step 41609 / 100000 | TPS 4.77028 | ETA 03:24:00
Time 02:25:15 | Step 41657 / 100000 | TPS 4.77975 | ETA 03:23:26
Time 02:25:25 | Step 41705 / 100000 | TPS 4.77055 | ETA 03:23:39
Time 02:25:35 | Step 41753 / 100000 | TPS 4.79001 | ETA 03:22:40
Time 02:25:45 | Step 41801 / 100000 | TPS 4.78497 | ETA 03:22:42
Time 02:25:55 | Step 41849 / 100000 | TPS 4.7837 | ETA 03:22:36
Time 02:26:05 | Step 41897 / 100000 | TPS 4.77619 | ETA 03:22:45
Time 02:26:15 | Step 41945 / 100000 | TPS 4.77447 | ETA 03:22:39
Time 02:26:25 | Step 41993 / 100000 | TPS 4.77581 | ETA 03:22:26
Time 02:26:36 | Step 42039 / 100000 | TPS 4.44661 | ETA 03:37:14
Time 02:26:46 | Step 42087 / 100000 | TPS 4.77631 | ETA 03:22:05
Time 02:26:56 | Step 42135 / 100000 | TPS 4.77084 | ETA 03:22:08
Time 02:27:06 | Step 42183 / 100000 | TPS 4.77453 | ETA 03:21:49
Time 02:27:16 | Step 42231 / 100000 | TPS 4.77465 | ETA 03:21:39
Time 02:27:26 | Step 42279 / 100000 | TPS 4.77103 | ETA 03:21:38
Time 02:27:36 | Step 42327 / 100000 | TPS 4.77221 | ETA 03:21:25
Time 02:27:46 | Step 42375 / 100000 | TPS 4.7746 | ETA 03:21:09
Time 02:27:56 | Step 42423 / 100000 | TPS 4.77893 | ETA 03:20:48
Time 02:28:06 | Step 42471 / 100000 | TPS 4.7785 | ETA 03:20:39
Time 02:28:16 | Step 42519 / 100000 | TPS 4.77063 | ETA 03:20:48
Time 02:28:26 | Step 42567 / 100000 | TPS 4.76667 | ETA 03:20:48
Time 02:28:36 | Step 42615 / 100000 | TPS 4.76575 | ETA 03:20:41
Time 02:28:47 | Step 42663 / 100000 | TPS 4.77946 | ETA 03:19:56
Time 02:28:57 | Step 42711 / 100000 | TPS 4.77523 | ETA 03:19:57
Time 02:29:07 | Step 42759 / 100000 | TPS 4.77478 | ETA 03:19:48
Time 02:29:17 | Step 42807 / 100000 | TPS 4.7719 | ETA 03:19:45
Time 02:29:27 | Step 42855 / 100000 | TPS 4.77161 | ETA 03:19:36
Time 02:29:37 | Step 42903 / 100000 | TPS 4.76098 | ETA 03:19:52
Time 02:29:47 | Step 42951 / 100000 | TPS 4.78239 | ETA 03:18:48
Time 02:29:57 | Step 42999 / 100000 | TPS 4.7789 | ETA 03:18:47
Time 02:30:07 | Step 43045 / 100000 | TPS 4.44602 | ETA 03:33:30
Time 02:30:17 | Step 43093 / 100000 | TPS 4.77098 | ETA 03:18:47
Time 02:30:27 | Step 43141 / 100000 | TPS 4.76473 | ETA 03:18:53
Time 02:30:37 | Step 43189 / 100000 | TPS 4.76087 | ETA 03:18:52
Time 02:30:48 | Step 43237 / 100000 | TPS 4.76846 | ETA 03:18:23
Time 02:30:58 | Step 43285 / 100000 | TPS 4.76381 | ETA 03:18:25
Time 02:31:08 | Step 43333 / 100000 | TPS 4.77072 | ETA 03:17:58
Time 02:31:18 | Step 43381 / 100000 | TPS 4.76255 | ETA 03:18:08
Time 02:31:28 | Step 43429 / 100000 | TPS 4.75957 | ETA 03:18:05
Time 02:31:38 | Step 43477 / 100000 | TPS 4.7575 | ETA 03:18:00
Time 02:31:48 | Step 43525 / 100000 | TPS 4.76125 | ETA 03:17:41
Time 02:31:58 | Step 43573 / 100000 | TPS 4.76716 | ETA 03:17:16
Time 02:32:08 | Step 43621 / 100000 | TPS 4.76305 | ETA 03:17:16
Time 02:32:18 | Step 43669 / 100000 | TPS 4.76587 | ETA 03:16:59
Time 02:32:28 | Step 43717 / 100000 | TPS 4.75703 | ETA 03:17:11
Time 02:32:38 | Step 43765 / 100000 | TPS 4.76238 | ETA 03:16:48
Time 02:32:48 | Step 43813 / 100000 | TPS 4.76214 | ETA 03:16:38
Time 02:32:59 | Step 43861 / 100000 | TPS 4.77826 | ETA 03:15:48
Time 02:33:09 | Step 43909 / 100000 | TPS 4.77835 | ETA 03:15:38
Time 02:33:19 | Step 43957 / 100000 | TPS 4.76917 | ETA 03:15:51
Time 02:33:29 | Step 44003 / 100000 | TPS 4.4307 | ETA 03:30:38
Time 02:33:39 | Step 44051 / 100000 | TPS 4.76174 | ETA 03:15:49
Time 02:33:49 | Step 44099 / 100000 | TPS 4.76131 | ETA 03:15:40
Time 02:33:59 | Step 44147 / 100000 | TPS 4.77345 | ETA 03:15:00
Time 02:34:09 | Step 44195 / 100000 | TPS 4.76842 | ETA 03:15:03
Time 02:34:19 | Step 44243 / 100000 | TPS 4.76652 | ETA 03:14:57
Time 02:34:29 | Step 44291 / 100000 | TPS 4.76211 | ETA 03:14:58
Time 02:34:40 | Step 44339 / 100000 | TPS 4.75588 | ETA 03:15:03
Time 02:34:50 | Step 44387 / 100000 | TPS 4.75212 | ETA 03:15:02
Time 02:35:00 | Step 44435 / 100000 | TPS 4.75486 | ETA 03:14:45
Time 02:35:10 | Step 44483 / 100000 | TPS 4.76559 | ETA 03:14:09
Time 02:35:20 | Step 44531 / 100000 | TPS 4.75669 | ETA 03:14:21
Time 02:35:30 | Step 44579 / 100000 | TPS 4.75652 | ETA 03:14:11
Time 02:35:40 | Step 44627 / 100000 | TPS 4.74758 | ETA 03:14:23
Time 02:35:50 | Step 44675 / 100000 | TPS 4.74401 | ETA 03:14:22
Time 02:36:00 | Step 44723 / 100000 | TPS 4.74399 | ETA 03:14:12
Time 02:36:10 | Step 44771 / 100000 | TPS 4.75905 | ETA 03:13:25
Time 02:36:21 | Step 44819 / 100000 | TPS 4.75618 | ETA 03:13:21
Time 02:36:31 | Step 44867 / 100000 | TPS 4.75177 | ETA 03:13:22
Time 02:36:41 | Step 44915 / 100000 | TPS 4.74419 | ETA 03:13:31
Time 02:36:51 | Step 44963 / 100000 | TPS 4.75035 | ETA 03:13:05
Time 02:37:01 | Step 45007 / 100000 | TPS 4.39944 | ETA 03:28:19
Time 02:37:11 | Step 45055 / 100000 | TPS 4.75812 | ETA 03:12:27
Time 02:37:21 | Step 45103 / 100000 | TPS 4.75683 | ETA 03:12:20
Time 02:37:31 | Step 45151 / 100000 | TPS 4.75274 | ETA 03:12:20
Time 02:37:41 | Step 45199 / 100000 | TPS 4.75298 | ETA 03:12:09
Time 02:37:51 | Step 45247 / 100000 | TPS 4.7556 | ETA 03:11:53
Time 02:38:01 | Step 45295 / 100000 | TPS 4.7472 | ETA 03:12:03
Time 02:38:12 | Step 45343 / 100000 | TPS 4.75862 | ETA 03:11:25
Time 02:38:22 | Step 45391 / 100000 | TPS 4.75288 | ETA 03:11:29
Time 02:38:32 | Step 45439 / 100000 | TPS 4.75763 | ETA 03:11:08
Time 02:38:42 | Step 45487 / 100000 | TPS 4.7595 | ETA 03:10:53
Time 02:38:52 | Step 45535 / 100000 | TPS 4.75109 | ETA 03:11:03
Time 02:39:02 | Step 45583 / 100000 | TPS 4.75105 | ETA 03:10:53
Time 02:39:12 | Step 45631 / 100000 | TPS 4.75843 | ETA 03:10:25
Time 02:39:22 | Step 45679 / 100000 | TPS 4.76164 | ETA 03:10:08
Time 02:39:32 | Step 45727 / 100000 | TPS 4.75709 | ETA 03:10:08
Time 02:39:42 | Step 45775 / 100000 | TPS 4.74864 | ETA 03:10:19
Time 02:39:52 | Step 45823 / 100000 | TPS 4.74353 | ETA 03:10:21
Time 02:40:03 | Step 45871 / 100000 | TPS 4.74448 | ETA 03:10:08
Time 02:40:13 | Step 45919 / 100000 | TPS 4.74632 | ETA 03:09:54
Time 02:40:23 | Step 45967 / 100000 | TPS 4.75524 | ETA 03:09:22
Time 02:40:33 | Step 46012 / 100000 | TPS 4.4939 | ETA 03:20:13
Time 02:40:43 | Step 46059 / 100000 | TPS 4.66134 | ETA 03:12:51
Time 02:40:53 | Step 46107 / 100000 | TPS 4.74515 | ETA 03:09:17
Time 02:41:03 | Step 46155 / 100000 | TPS 4.74876 | ETA 03:08:58
Time 02:41:13 | Step 46203 / 100000 | TPS 4.73611 | ETA 03:09:18
Time 02:41:23 | Step 46251 / 100000 | TPS 4.76492 | ETA 03:08:00
Time 02:41:33 | Step 46299 / 100000 | TPS 4.7615 | ETA 03:07:58
Time 02:41:44 | Step 46347 / 100000 | TPS 4.75375 | ETA 03:08:06
Time 02:41:54 | Step 46395 / 100000 | TPS 4.75335 | ETA 03:07:57
Time 02:42:04 | Step 46443 / 100000 | TPS 4.75093 | ETA 03:07:52
Time 02:42:14 | Step 46491 / 100000 | TPS 4.74907 | ETA 03:07:47
Time 02:42:24 | Step 46539 / 100000 | TPS 4.75151 | ETA 03:07:31
Time 02:42:34 | Step 46587 / 100000 | TPS 4.75869 | ETA 03:07:04
Time 02:42:44 | Step 46635 / 100000 | TPS 4.75886 | ETA 03:06:53
Time 02:42:54 | Step 46683 / 100000 | TPS 4.74881 | ETA 03:07:07
Time 02:43:04 | Step 46731 / 100000 | TPS 4.74777 | ETA 03:06:59
Time 02:43:14 | Step 46779 / 100000 | TPS 4.74814 | ETA 03:06:48
Time 02:43:25 | Step 46827 / 100000 | TPS 4.75158 | ETA 03:06:30
Time 02:43:35 | Step 46875 / 100000 | TPS 4.75132 | ETA 03:06:21
Time 02:43:45 | Step 46923 / 100000 | TPS 4.75342 | ETA 03:06:06
Time 02:43:55 | Step 46971 / 100000 | TPS 4.75005 | ETA 03:06:03
Time 02:44:05 | Step 47016 / 100000 | TPS 4.49878 | ETA 03:16:17
Time 02:44:15 | Step 47063 / 100000 | TPS 4.65554 | ETA 03:09:30
Time 02:44:25 | Step 47111 / 100000 | TPS 4.74439 | ETA 03:05:47
Time 02:44:35 | Step 47159 / 100000 | TPS 4.75448 | ETA 03:05:13
Time 02:44:45 | Step 47207 / 100000 | TPS 4.74735 | ETA 03:05:20
Time 02:44:55 | Step 47255 / 100000 | TPS 4.75182 | ETA 03:04:59
Time 02:45:05 | Step 47303 / 100000 | TPS 4.74743 | ETA 03:05:00
Time 02:45:16 | Step 47351 / 100000 | TPS 4.75019 | ETA 03:04:43
Time 02:45:26 | Step 47399 / 100000 | TPS 4.75111 | ETA 03:04:31
Time 02:45:36 | Step 47447 / 100000 | TPS 4.74928 | ETA 03:04:25
Time 02:45:46 | Step 47495 / 100000 | TPS 4.75751 | ETA 03:03:56
Time 02:45:56 | Step 47543 / 100000 | TPS 4.74884 | ETA 03:04:06
Time 02:46:06 | Step 47591 / 100000 | TPS 4.75218 | ETA 03:03:48
Time 02:46:16 | Step 47639 / 100000 | TPS 4.74608 | ETA 03:03:52
Time 02:46:26 | Step 47687 / 100000 | TPS 4.74658 | ETA 03:03:41
Time 02:46:36 | Step 47735 / 100000 | TPS 4.74807 | ETA 03:03:27
Time 02:46:47 | Step 47783 / 100000 | TPS 4.76049 | ETA 03:02:48
Time 02:46:57 | Step 47831 / 100000 | TPS 4.76471 | ETA 03:02:29
Time 02:47:07 | Step 47879 / 100000 | TPS 4.75584 | ETA 03:02:39
Time 02:47:17 | Step 47927 / 100000 | TPS 4.75484 | ETA 03:02:31
Time 02:47:27 | Step 47975 / 100000 | TPS 4.7526 | ETA 03:02:26
Time 02:47:37 | Step 48020 / 100000 | TPS 4.49882 | ETA 03:12:34
Time 02:47:47 | Step 48067 / 100000 | TPS 4.67424 | ETA 03:05:10
Time 02:47:57 | Step 48115 / 100000 | TPS 4.7566 | ETA 03:01:48
Time 02:48:07 | Step 48163 / 100000 | TPS 4.75734 | ETA 03:01:36
Time 02:48:17 | Step 48211 / 100000 | TPS 4.75482 | ETA 03:01:31
Time 02:48:27 | Step 48259 / 100000 | TPS 4.74989 | ETA 03:01:33
Time 02:48:37 | Step 48307 / 100000 | TPS 4.73618 | ETA 03:01:54
Time 02:48:48 | Step 48355 / 100000 | TPS 4.75776 | ETA 03:00:54
Time 02:48:58 | Step 48403 / 100000 | TPS 4.75807 | ETA 03:00:44
Time 02:49:08 | Step 48451 / 100000 | TPS 4.75639 | ETA 03:00:37
Time 02:49:18 | Step 48499 / 100000 | TPS 4.74525 | ETA 03:00:53
Time 02:49:28 | Step 48547 / 100000 | TPS 4.74556 | ETA 03:00:42
Time 02:49:38 | Step 48595 / 100000 | TPS 4.74711 | ETA 03:00:28
Time 02:49:48 | Step 48643 / 100000 | TPS 4.7455 | ETA 03:00:22
Time 02:49:58 | Step 48691 / 100000 | TPS 4.75595 | ETA 02:59:48
Time 02:50:08 | Step 48739 / 100000 | TPS 4.74664 | ETA 02:59:59
Time 02:50:18 | Step 48787 / 100000 | TPS 4.7496 | ETA 02:59:42
Time 02:50:29 | Step 48835 / 100000 | TPS 4.74438 | ETA 02:59:44
Time 02:50:39 | Step 48883 / 100000 | TPS 4.74639 | ETA 02:59:29
Time 02:50:49 | Step 48931 / 100000 | TPS 4.74196 | ETA 02:59:29
Time 02:50:59 | Step 48979 / 100000 | TPS 4.75 | ETA 02:59:01
Time 02:51:09 | Step 49024 / 100000 | TPS 4.49148 | ETA 03:09:09
Time 02:51:19 | Step 49071 / 100000 | TPS 4.6626 | ETA 03:02:02
Time 02:51:29 | Step 49119 / 100000 | TPS 4.74669 | ETA 02:58:39
Time 02:51:39 | Step 49167 / 100000 | TPS 4.74741 | ETA 02:58:27
Time 02:51:49 | Step 49215 / 100000 | TPS 4.74758 | ETA 02:58:17
Time 02:51:59 | Step 49263 / 100000 | TPS 4.75716 | ETA 02:57:45
Time 02:52:10 | Step 49311 / 100000 | TPS 4.75166 | ETA 02:57:47
Time 02:52:20 | Step 49359 / 100000 | TPS 4.76303 | ETA 02:57:12
Time 02:52:30 | Step 49407 / 100000 | TPS 4.75639 | ETA 02:57:16
Time 02:52:40 | Step 49455 / 100000 | TPS 4.75276 | ETA 02:57:14
Time 02:52:50 | Step 49503 / 100000 | TPS 4.74586 | ETA 02:57:20
Time 02:53:00 | Step 49551 / 100000 | TPS 4.76429 | ETA 02:56:28
Time 02:53:10 | Step 49599 / 100000 | TPS 4.75142 | ETA 02:56:47
Time 02:53:20 | Step 49647 / 100000 | TPS 4.75134 | ETA 02:56:37
Time 02:53:30 | Step 49695 / 100000 | TPS 4.75602 | ETA 02:56:17
Time 02:53:40 | Step 49743 / 100000 | TPS 4.7531 | ETA 02:56:13
Time 02:53:51 | Step 49791 / 100000 | TPS 4.75218 | ETA 02:56:05
Time 02:54:01 | Step 49839 / 100000 | TPS 4.75299 | ETA 02:55:53
Time 02:54:11 | Step 49887 / 100000 | TPS 4.75936 | ETA 02:55:29
Time 02:54:21 | Step 49935 / 100000 | TPS 4.75269 | ETA 02:55:34
Time 02:54:31 | Step 49983 / 100000 | TPS 4.75189 | ETA 02:55:25
Time 02:54:41 | Step 50028 / 100000 | TPS 4.49668 | ETA 03:05:13
Time 02:54:51 | Step 50075 / 100000 | TPS 4.66486 | ETA 02:58:22
Time 02:55:01 | Step 50123 / 100000 | TPS 4.75371 | ETA 02:54:52
Time 02:55:11 | Step 50171 / 100000 | TPS 4.76398 | ETA 02:54:19
Time 02:55:21 | Step 50219 / 100000 | TPS 4.76011 | ETA 02:54:17
Time 02:55:31 | Step 50267 / 100000 | TPS 4.7525 | ETA 02:54:24
Time 02:55:41 | Step 50315 / 100000 | TPS 4.7578 | ETA 02:54:02
Time 02:55:52 | Step 50363 / 100000 | TPS 4.75636 | ETA 02:53:55
Time 02:56:02 | Step 50411 / 100000 | TPS 4.74532 | ETA 02:54:10
Time 02:56:12 | Step 50459 / 100000 | TPS 4.76536 | ETA 02:53:16
Time 02:56:22 | Step 50507 / 100000 | TPS 4.76526 | ETA 02:53:06
Time 02:56:32 | Step 50555 / 100000 | TPS 4.76647 | ETA 02:52:53
Time 02:56:42 | Step 50603 / 100000 | TPS 4.76844 | ETA 02:52:39
Time 02:56:52 | Step 50651 / 100000 | TPS 4.75793 | ETA 02:52:51
Time 02:57:02 | Step 50699 / 100000 | TPS 4.75283 | ETA 02:52:52
Time 02:57:12 | Step 50747 / 100000 | TPS 4.7632 | ETA 02:52:20
Time 02:57:22 | Step 50795 / 100000 | TPS 4.76449 | ETA 02:52:07
Time 02:57:32 | Step 50843 / 100000 | TPS 4.76617 | ETA 02:51:53
Time 02:57:42 | Step 50891 / 100000 | TPS 4.75734 | ETA 02:52:02
Time 02:57:53 | Step 50939 / 100000 | TPS 4.75696 | ETA 02:51:53
Time 02:58:03 | Step 50987 / 100000 | TPS 4.75473 | ETA 02:51:48
Time 02:58:13 | Step 51033 / 100000 | TPS 4.42852 | ETA 03:04:17
Time 02:58:23 | Step 51081 / 100000 | TPS 4.75879 | ETA 02:51:19
Time 02:58:33 | Step 51129 / 100000 | TPS 4.75617 | ETA 02:51:15
Time 02:58:43 | Step 51177 / 100000 | TPS 4.75673 | ETA 02:51:03
Time 02:58:53 | Step 51225 / 100000 | TPS 4.75666 | ETA 02:50:54
Time 02:59:03 | Step 51273 / 100000 | TPS 4.75211 | ETA 02:50:53
Time 02:59:14 | Step 51321 / 100000 | TPS 4.75903 | ETA 02:50:28
Time 02:59:24 | Step 51369 / 100000 | TPS 4.76545 | ETA 02:50:04
Time 02:59:34 | Step 51417 / 100000 | TPS 4.76351 | ETA 02:49:58
Time 02:59:44 | Step 51465 / 100000 | TPS 4.76262 | ETA 02:49:50
Time 02:59:54 | Step 51513 / 100000 | TPS 4.7679 | ETA 02:49:29
Time 03:00:04 | Step 51561 / 100000 | TPS 4.75839 | ETA 02:49:39
Time 03:00:14 | Step 51609 / 100000 | TPS 4.75203 | ETA 02:49:43
Time 03:00:24 | Step 51657 / 100000 | TPS 4.76131 | ETA 02:49:13
Time 03:00:34 | Step 51705 / 100000 | TPS 4.75655 | ETA 02:49:13
Time 03:00:44 | Step 51753 / 100000 | TPS 4.76452 | ETA 02:48:46
Time 03:00:54 | Step 51801 / 100000 | TPS 4.75651 | ETA 02:48:53
Time 03:01:04 | Step 51849 / 100000 | TPS 4.7527 | ETA 02:48:51
Time 03:01:15 | Step 51897 / 100000 | TPS 4.75484 | ETA 02:48:36
Time 03:01:25 | Step 51945 / 100000 | TPS 4.76168 | ETA 02:48:12
Time 03:01:35 | Step 51993 / 100000 | TPS 4.75949 | ETA 02:48:06
Time 03:01:45 | Step 52039 / 100000 | TPS 4.42767 | ETA 03:00:32
Time 03:01:55 | Step 52087 / 100000 | TPS 4.76093 | ETA 02:47:43
Time 03:02:05 | Step 52135 / 100000 | TPS 4.75357 | ETA 02:47:49
Time 03:02:15 | Step 52183 / 100000 | TPS 4.75984 | ETA 02:47:25
Time 03:02:25 | Step 52231 / 100000 | TPS 4.75552 | ETA 02:47:24
Time 03:02:36 | Step 52279 / 100000 | TPS 4.76117 | ETA 02:47:02
Time 03:02:46 | Step 52327 / 100000 | TPS 4.76283 | ETA 02:46:49
Time 03:02:56 | Step 52375 / 100000 | TPS 4.75787 | ETA 02:46:49
Time 03:03:06 | Step 52423 / 100000 | TPS 4.75523 | ETA 02:46:45
Time 03:03:16 | Step 52471 / 100000 | TPS 4.76062 | ETA 02:46:23
Time 03:03:26 | Step 52519 / 100000 | TPS 4.7539 | ETA 02:46:27
Time 03:03:36 | Step 52567 / 100000 | TPS 4.75724 | ETA 02:46:10
Time 03:03:46 | Step 52615 / 100000 | TPS 4.76292 | ETA 02:45:48
Time 03:03:56 | Step 52663 / 100000 | TPS 4.75923 | ETA 02:45:46
Time 03:04:06 | Step 52711 / 100000 | TPS 4.75682 | ETA 02:45:41
Time 03:04:16 | Step 52759 / 100000 | TPS 4.75588 | ETA 02:45:33
Time 03:04:27 | Step 52807 / 100000 | TPS 4.75515 | ETA 02:45:24
Time 03:04:37 | Step 52855 / 100000 | TPS 4.76541 | ETA 02:44:53
Time 03:04:47 | Step 52903 / 100000 | TPS 4.76209 | ETA 02:44:49
Time 03:04:57 | Step 52951 / 100000 | TPS 4.76548 | ETA 02:44:32
Time 03:05:07 | Step 52999 / 100000 | TPS 4.75986 | ETA 02:44:34
Time 03:05:17 | Step 53045 / 100000 | TPS 4.43362 | ETA 02:56:30
Time 03:05:27 | Step 53093 / 100000 | TPS 4.7645 | ETA 02:44:05
Time 03:05:37 | Step 53141 / 100000 | TPS 4.76041 | ETA 02:44:03
Time 03:05:47 | Step 53189 / 100000 | TPS 4.76347 | ETA 02:43:47
Time 03:05:58 | Step 53237 / 100000 | TPS 4.76423 | ETA 02:43:35
Time 03:06:08 | Step 53285 / 100000 | TPS 4.76363 | ETA 02:43:26
Time 03:06:18 | Step 53333 / 100000 | TPS 4.76306 | ETA 02:43:17
Time 03:06:28 | Step 53381 / 100000 | TPS 4.7618 | ETA 02:43:10
Time 03:06:38 | Step 53429 / 100000 | TPS 4.76484 | ETA 02:42:53
Time 03:06:48 | Step 53477 / 100000 | TPS 4.77121 | ETA 02:42:30
Time 03:06:58 | Step 53525 / 100000 | TPS 4.76973 | ETA 02:42:23
Time 03:07:08 | Step 53573 / 100000 | TPS 4.76849 | ETA 02:42:16
Time 03:07:18 | Step 53621 / 100000 | TPS 4.75813 | ETA 02:42:27
Time 03:07:28 | Step 53669 / 100000 | TPS 4.75731 | ETA 02:42:18
Time 03:07:38 | Step 53717 / 100000 | TPS 4.76626 | ETA 02:41:50
Time 03:07:48 | Step 53765 / 100000 | TPS 4.77747 | ETA 02:41:17
Time 03:07:58 | Step 53813 / 100000 | TPS 4.77178 | ETA 02:41:19
Time 03:08:08 | Step 53861 / 100000 | TPS 4.76926 | ETA 02:41:14
Time 03:08:18 | Step 53909 / 100000 | TPS 4.77176 | ETA 02:40:59
Time 03:08:29 | Step 53957 / 100000 | TPS 4.76293 | ETA 02:41:06
Time 03:08:39 | Step 54003 / 100000 | TPS 4.43496 | ETA 02:52:51
Time 03:08:49 | Step 54051 / 100000 | TPS 4.78069 | ETA 02:40:11
Time 03:08:59 | Step 54099 / 100000 | TPS 4.78212 | ETA 02:39:58
Time 03:09:09 | Step 54147 / 100000 | TPS 4.77973 | ETA 02:39:53
Time 03:09:19 | Step 54195 / 100000 | TPS 4.77533 | ETA 02:39:52
Time 03:09:29 | Step 54243 / 100000 | TPS 4.76896 | ETA 02:39:54
Time 03:09:39 | Step 54291 / 100000 | TPS 4.77607 | ETA 02:39:30
Time 03:09:49 | Step 54339 / 100000 | TPS 4.77308 | ETA 02:39:26
Time 03:09:59 | Step 54387 / 100000 | TPS 4.7743 | ETA 02:39:13
Time 03:10:09 | Step 54435 / 100000 | TPS 4.77847 | ETA 02:38:55
Time 03:10:19 | Step 54483 / 100000 | TPS 4.77369 | ETA 02:38:54
Time 03:10:29 | Step 54531 / 100000 | TPS 4.77964 | ETA 02:38:33
Time 03:10:40 | Step 54579 / 100000 | TPS 4.77134 | ETA 02:38:39
Time 03:10:50 | Step 54627 / 100000 | TPS 4.77116 | ETA 02:38:29
Time 03:11:00 | Step 54675 / 100000 | TPS 4.77781 | ETA 02:38:06
Time 03:11:10 | Step 54723 / 100000 | TPS 4.77622 | ETA 02:37:59
Time 03:11:20 | Step 54771 / 100000 | TPS 4.77137 | ETA 02:37:59
Time 03:11:30 | Step 54819 / 100000 | TPS 4.78068 | ETA 02:37:30
Time 03:11:40 | Step 54867 / 100000 | TPS 4.77711 | ETA 02:37:27
Time 03:11:50 | Step 54915 / 100000 | TPS 4.77319 | ETA 02:37:25
Time 03:12:00 | Step 54963 / 100000 | TPS 4.78418 | ETA 02:36:53
Time 03:12:10 | Step 55009 / 100000 | TPS 4.4421 | ETA 02:48:48
Time 03:12:20 | Step 55057 / 100000 | TPS 4.77772 | ETA 02:36:46
Time 03:12:30 | Step 55105 / 100000 | TPS 4.7737 | ETA 02:36:44
Time 03:12:40 | Step 55153 / 100000 | TPS 4.77465 | ETA 02:36:32
Time 03:12:51 | Step 55201 / 100000 | TPS 4.77133 | ETA 02:36:29
Time 03:13:01 | Step 55249 / 100000 | TPS 4.78644 | ETA 02:35:49
Time 03:13:11 | Step 55297 / 100000 | TPS 4.78689 | ETA 02:35:38
Time 03:13:21 | Step 55345 / 100000 | TPS 4.78076 | ETA 02:35:40
Time 03:13:31 | Step 55393 / 100000 | TPS 4.77397 | ETA 02:35:43
Time 03:13:41 | Step 55441 / 100000 | TPS 4.77348 | ETA 02:35:34
Time 03:13:51 | Step 55489 / 100000 | TPS 4.77393 | ETA 02:35:23
Time 03:14:01 | Step 55537 / 100000 | TPS 4.78589 | ETA 02:34:50
Time 03:14:11 | Step 55585 / 100000 | TPS 4.78849 | ETA 02:34:35
Time 03:14:21 | Step 55633 / 100000 | TPS 4.78192 | ETA 02:34:38
Time 03:14:31 | Step 55681 / 100000 | TPS 4.78122 | ETA 02:34:29
Time 03:14:41 | Step 55729 / 100000 | TPS 4.77478 | ETA 02:34:31
Time 03:14:51 | Step 55777 / 100000 | TPS 4.77704 | ETA 02:34:17
Time 03:15:01 | Step 55825 / 100000 | TPS 4.78537 | ETA 02:33:51
Time 03:15:11 | Step 55873 / 100000 | TPS 4.77989 | ETA 02:33:51
Time 03:15:21 | Step 55921 / 100000 | TPS 4.78103 | ETA 02:33:39
Time 03:15:31 | Step 55969 / 100000 | TPS 4.78051 | ETA 02:33:30
Time 03:15:42 | Step 56015 / 100000 | TPS 4.44216 | ETA 02:45:01
Time 03:15:52 | Step 56063 / 100000 | TPS 4.77605 | ETA 02:33:19
Time 03:16:02 | Step 56111 / 100000 | TPS 4.78358 | ETA 02:32:54
Time 03:16:12 | Step 56159 / 100000 | TPS 4.78779 | ETA 02:32:36
Time 03:16:22 | Step 56207 / 100000 | TPS 4.77786 | ETA 02:32:45
Time 03:16:32 | Step 56255 / 100000 | TPS 4.78825 | ETA 02:32:15
Time 03:16:42 | Step 56303 / 100000 | TPS 4.78231 | ETA 02:32:17
Time 03:16:52 | Step 56351 / 100000 | TPS 4.78347 | ETA 02:32:04
Time 03:17:02 | Step 56399 / 100000 | TPS 4.78246 | ETA 02:31:56
[...]
Time 04:59:03 | Step 85521 / 100000 | TPS 4.77593 | ETA 00:50:31
Time 04:59:13 | Step 85569 / 100000 | TPS 4.78612 | ETA 00:50:15
Time 04:59:23 | Step 85617 / 100000 | TPS 4.78162 | ETA 00:50:07
Time 04:59:33 | Step 85665 / 100000 | TPS 4.77694 | ETA 00:50:00
Time 04:59:43 | Step 85713 / 100000 | TPS 4.78377 | ETA 00:49:46
Time 04:59:53 | Step 85761 / 100000 | TPS 4.77836 | ETA 00:49:39
Time 05:00:03 | Step 85809 / 100000 | TPS 4.77557 | ETA 00:49:31
Time 05:00:13 | Step 85857 / 100000 | TPS 4.78975 | ETA 00:49:12
Time 05:00:23 | Step 85905 / 100000 | TPS 4.78259 | ETA 00:49:07
Time 05:00:33 | Step 85953 / 100000 | TPS 4.78257 | ETA 00:48:57
Time 05:00:44 | Step 86001 / 100000 | TPS 4.4533 | ETA 00:52:23
Time 05:00:54 | Step 86049 / 100000 | TPS 4.77249 | ETA 00:48:43
Time 05:01:04 | Step 86097 / 100000 | TPS 4.77649 | ETA 00:48:30
Time 05:01:14 | Step 86145 / 100000 | TPS 4.7763 | ETA 00:48:20
Time 05:01:24 | Step 86193 / 100000 | TPS 4.78459 | ETA 00:48:05
Time 05:01:34 | Step 86241 / 100000 | TPS 4.783 | ETA 00:47:56
Time 05:01:44 | Step 86289 / 100000 | TPS 4.78953 | ETA 00:47:42
Time 05:01:54 | Step 86337 / 100000 | TPS 4.77933 | ETA 00:47:38
Time 05:02:04 | Step 86385 / 100000 | TPS 4.77849 | ETA 00:47:29
Time 05:02:14 | Step 86433 / 100000 | TPS 4.77719 | ETA 00:47:19
Time 05:02:24 | Step 86481 / 100000 | TPS 4.78534 | ETA 00:47:05
Time 05:02:34 | Step 86529 / 100000 | TPS 4.78779 | ETA 00:46:53
Time 05:02:44 | Step 86577 / 100000 | TPS 4.78432 | ETA 00:46:45
Time 05:02:54 | Step 86625 / 100000 | TPS 4.77898 | ETA 00:46:38
Time 05:03:04 | Step 86673 / 100000 | TPS 4.77734 | ETA 00:46:29
Time 05:03:14 | Step 86721 / 100000 | TPS 4.7742 | ETA 00:46:21
Time 05:03:24 | Step 86769 / 100000 | TPS 4.7864 | ETA 00:46:04
Time 05:03:34 | Step 86817 / 100000 | TPS 4.7912 | ETA 00:45:51
Time 05:03:44 | Step 86865 / 100000 | TPS 4.78329 | ETA 00:45:46
Time 05:03:55 | Step 86913 / 100000 | TPS 4.79022 | ETA 00:45:32
Time 05:04:05 | Step 86961 / 100000 | TPS 4.78057 | ETA 00:45:27
Time 05:04:15 | Step 87007 / 100000 | TPS 4.44488 | ETA 00:48:43
Time 05:04:25 | Step 87055 / 100000 | TPS 4.7987 | ETA 00:44:57
Time 05:04:35 | Step 87103 / 100000 | TPS 4.79326 | ETA 00:44:50
Time 05:04:45 | Step 87151 / 100000 | TPS 4.792 | ETA 00:44:41
Time 05:04:55 | Step 87199 / 100000 | TPS 4.78896 | ETA 00:44:33
Time 05:05:05 | Step 87247 / 100000 | TPS 4.77946 | ETA 00:44:28
Time 05:05:15 | Step 87295 / 100000 | TPS 4.7864 | ETA 00:44:14
Time 05:05:25 | Step 87343 / 100000 | TPS 4.78921 | ETA 00:44:02
Time 05:05:35 | Step 87391 / 100000 | TPS 4.79367 | ETA 00:43:50
Time 05:05:45 | Step 87439 / 100000 | TPS 4.78608 | ETA 00:43:44
Time 05:05:55 | Step 87487 / 100000 | TPS 4.77551 | ETA 00:43:40
Time 05:06:05 | Step 87535 / 100000 | TPS 4.77733 | ETA 00:43:29
Time 05:06:15 | Step 87583 / 100000 | TPS 4.78395 | ETA 00:43:15
Time 05:06:25 | Step 87631 / 100000 | TPS 4.79381 | ETA 00:43:00
Time 05:06:35 | Step 87679 / 100000 | TPS 4.79298 | ETA 00:42:50
Time 05:06:45 | Step 87727 / 100000 | TPS 4.79065 | ETA 00:42:41
Time 05:06:55 | Step 87775 / 100000 | TPS 4.78544 | ETA 00:42:34
Time 05:07:05 | Step 87823 / 100000 | TPS 4.77651 | ETA 00:42:29
Time 05:07:15 | Step 87871 / 100000 | TPS 4.78154 | ETA 00:42:16
Time 05:07:25 | Step 87919 / 100000 | TPS 4.7833 | ETA 00:42:05
Time 05:07:35 | Step 87967 / 100000 | TPS 4.79147 | ETA 00:41:51
Time 05:07:46 | Step 88013 / 100000 | TPS 4.45639 | ETA 00:44:49
Time 05:07:56 | Step 88061 / 100000 | TPS 4.77869 | ETA 00:41:38
Time 05:08:06 | Step 88109 / 100000 | TPS 4.7825 | ETA 00:41:26
Time 05:08:16 | Step 88157 / 100000 | TPS 4.77763 | ETA 00:41:18
Time 05:08:26 | Step 88205 / 100000 | TPS 4.77145 | ETA 00:41:11
Time 05:08:36 | Step 88253 / 100000 | TPS 4.7843 | ETA 00:40:55
Time 05:08:46 | Step 88301 / 100000 | TPS 4.78672 | ETA 00:40:44
Time 05:08:56 | Step 88349 / 100000 | TPS 4.7815 | ETA 00:40:36
Time 05:09:06 | Step 88397 / 100000 | TPS 4.78182 | ETA 00:40:26
Time 05:09:16 | Step 88445 / 100000 | TPS 4.78035 | ETA 00:40:17
Time 05:09:26 | Step 88493 / 100000 | TPS 4.78249 | ETA 00:40:06
Time 05:09:36 | Step 88541 / 100000 | TPS 4.78554 | ETA 00:39:54
Time 05:09:46 | Step 88589 / 100000 | TPS 4.78241 | ETA 00:39:46
Time 05:09:56 | Step 88637 / 100000 | TPS 4.78203 | ETA 00:39:36
Time 05:10:06 | Step 88685 / 100000 | TPS 4.78483 | ETA 00:39:24
Time 05:10:16 | Step 88733 / 100000 | TPS 4.7827 | ETA 00:39:15
Time 05:10:26 | Step 88781 / 100000 | TPS 4.77917 | ETA 00:39:07
Time 05:10:36 | Step 88829 / 100000 | TPS 4.78657 | ETA 00:38:53
Time 05:10:46 | Step 88877 / 100000 | TPS 4.79055 | ETA 00:38:41
Time 05:10:56 | Step 88925 / 100000 | TPS 4.78239 | ETA 00:38:35
Time 05:11:07 | Step 88973 / 100000 | TPS 4.78279 | ETA 00:38:25
Time 05:11:17 | Step 89019 / 100000 | TPS 4.44916 | ETA 00:41:08
Time 05:11:27 | Step 89067 / 100000 | TPS 4.79248 | ETA 00:38:01
Time 05:11:37 | Step 89115 / 100000 | TPS 4.78533 | ETA 00:37:54
Time 05:11:47 | Step 89163 / 100000 | TPS 4.78813 | ETA 00:37:43
Time 05:11:57 | Step 89211 / 100000 | TPS 4.79223 | ETA 00:37:31
Time 05:12:07 | Step 89259 / 100000 | TPS 4.78739 | ETA 00:37:23
Time 05:12:17 | Step 89307 / 100000 | TPS 4.77896 | ETA 00:37:17
Time 05:12:27 | Step 89355 / 100000 | TPS 4.78456 | ETA 00:37:04
Time 05:12:37 | Step 89403 / 100000 | TPS 4.77841 | ETA 00:36:57
Time 05:12:47 | Step 89451 / 100000 | TPS 4.79501 | ETA 00:36:39
Time 05:12:57 | Step 89499 / 100000 | TPS 4.78228 | ETA 00:36:35
Time 05:13:07 | Step 89547 / 100000 | TPS 4.78642 | ETA 00:36:23
Time 05:13:17 | Step 89595 / 100000 | TPS 4.78622 | ETA 00:36:13
Time 05:13:27 | Step 89643 / 100000 | TPS 4.78194 | ETA 00:36:05
Time 05:13:37 | Step 89691 / 100000 | TPS 4.78379 | ETA 00:35:54
Time 05:13:47 | Step 89739 / 100000 | TPS 4.78871 | ETA 00:35:42
Time 05:13:57 | Step 89787 / 100000 | TPS 4.79146 | ETA 00:35:31
Time 05:14:07 | Step 89835 / 100000 | TPS 4.79191 | ETA 00:35:21
Time 05:14:17 | Step 89883 / 100000 | TPS 4.78956 | ETA 00:35:12
Time 05:14:27 | Step 89931 / 100000 | TPS 4.78762 | ETA 00:35:03
Time 05:14:37 | Step 89979 / 100000 | TPS 4.78153 | ETA 00:34:55
Time 05:14:48 | Step 90025 / 100000 | TPS 4.44673 | ETA 00:37:23
Time 05:14:58 | Step 90073 / 100000 | TPS 4.78666 | ETA 00:34:33
Time 05:15:08 | Step 90121 / 100000 | TPS 4.78769 | ETA 00:34:23
Time 05:15:18 | Step 90169 / 100000 | TPS 4.79153 | ETA 00:34:11
Time 05:15:28 | Step 90217 / 100000 | TPS 4.77779 | ETA 00:34:07
Time 05:15:38 | Step 90265 / 100000 | TPS 4.78273 | ETA 00:33:55
Time 05:15:48 | Step 90313 / 100000 | TPS 4.78051 | ETA 00:33:46
Time 05:15:58 | Step 90361 / 100000 | TPS 4.78705 | ETA 00:33:33
Time 05:16:08 | Step 90409 / 100000 | TPS 4.78681 | ETA 00:33:23
Time 05:16:18 | Step 90457 / 100000 | TPS 4.78352 | ETA 00:33:14
Time 05:16:28 | Step 90505 / 100000 | TPS 4.77904 | ETA 00:33:06
Time 05:16:38 | Step 90553 / 100000 | TPS 4.78356 | ETA 00:32:54
Time 05:16:48 | Step 90601 / 100000 | TPS 4.77683 | ETA 00:32:47
Time 05:16:58 | Step 90649 / 100000 | TPS 4.79333 | ETA 00:32:30
Time 05:17:08 | Step 90697 / 100000 | TPS 4.79191 | ETA 00:32:21
Time 05:17:18 | Step 90745 / 100000 | TPS 4.78397 | ETA 00:32:14
Time 05:17:28 | Step 90793 / 100000 | TPS 4.78058 | ETA 00:32:05
Time 05:17:38 | Step 90841 / 100000 | TPS 4.77856 | ETA 00:31:56
Time 05:17:48 | Step 90889 / 100000 | TPS 4.78294 | ETA 00:31:44
Time 05:17:58 | Step 90937 / 100000 | TPS 4.78704 | ETA 00:31:33
Time 05:18:08 | Step 90985 / 100000 | TPS 4.79146 | ETA 00:31:21
Time 05:18:19 | Step 91031 / 100000 | TPS 4.45067 | ETA 00:33:35
Time 05:18:29 | Step 91079 / 100000 | TPS 4.78462 | ETA 00:31:04
Time 05:18:39 | Step 91127 / 100000 | TPS 4.78134 | ETA 00:30:55
Time 05:18:49 | Step 91175 / 100000 | TPS 4.78346 | ETA 00:30:44
Time 05:18:59 | Step 91223 / 100000 | TPS 4.78062 | ETA 00:30:35
Time 05:19:09 | Step 91271 / 100000 | TPS 4.79236 | ETA 00:30:21
Time 05:19:19 | Step 91319 / 100000 | TPS 4.78435 | ETA 00:30:14
Time 05:19:29 | Step 91367 / 100000 | TPS 4.78516 | ETA 00:30:04
Time 05:19:39 | Step 91415 / 100000 | TPS 4.78229 | ETA 00:29:55
Time 05:19:49 | Step 91463 / 100000 | TPS 4.78138 | ETA 00:29:45
Time 05:19:59 | Step 91511 / 100000 | TPS 4.78195 | ETA 00:29:35
Time 05:20:09 | Step 91559 / 100000 | TPS 4.79484 | ETA 00:29:20
Time 05:20:19 | Step 91607 / 100000 | TPS 4.78613 | ETA 00:29:13
Time 05:20:29 | Step 91655 / 100000 | TPS 4.7866 | ETA 00:29:03
Time 05:20:39 | Step 91703 / 100000 | TPS 4.79247 | ETA 00:28:51
Time 05:20:49 | Step 91751 / 100000 | TPS 4.78618 | ETA 00:28:43
Time 05:20:59 | Step 91799 / 100000 | TPS 4.78463 | ETA 00:28:34
Time 05:21:09 | Step 91847 / 100000 | TPS 4.78281 | ETA 00:28:24
Time 05:21:19 | Step 91895 / 100000 | TPS 4.78748 | ETA 00:28:12
Time 05:21:29 | Step 91943 / 100000 | TPS 4.78515 | ETA 00:28:03
Time 05:21:39 | Step 91991 / 100000 | TPS 4.77967 | ETA 00:27:55
Time 05:21:50 | Step 92037 / 100000 | TPS 4.44112 | ETA 00:29:53
Time 05:22:00 | Step 92085 / 100000 | TPS 4.77992 | ETA 00:27:35
Time 05:22:10 | Step 92133 / 100000 | TPS 4.78506 | ETA 00:27:24
Time 05:22:20 | Step 92181 / 100000 | TPS 4.79166 | ETA 00:27:11
Time 05:22:30 | Step 92229 / 100000 | TPS 4.78903 | ETA 00:27:02
Time 05:22:40 | Step 92277 / 100000 | TPS 4.78654 | ETA 00:26:53
Time 05:22:50 | Step 92325 / 100000 | TPS 4.78245 | ETA 00:26:44
Time 05:23:00 | Step 92373 / 100000 | TPS 4.78164 | ETA 00:26:35
Time 05:23:10 | Step 92421 / 100000 | TPS 4.77541 | ETA 00:26:27
Time 05:23:20 | Step 92469 / 100000 | TPS 4.79291 | ETA 00:26:11
Time 05:23:30 | Step 92517 / 100000 | TPS 4.78345 | ETA 00:26:04
Time 05:23:40 | Step 92565 / 100000 | TPS 4.78815 | ETA 00:25:52
Time 05:23:50 | Step 92613 / 100000 | TPS 4.77378 | ETA 00:25:47
Time 05:24:00 | Step 92661 / 100000 | TPS 4.77937 | ETA 00:25:35
Time 05:24:10 | Step 92709 / 100000 | TPS 4.77709 | ETA 00:25:26
Time 05:24:20 | Step 92757 / 100000 | TPS 4.78519 | ETA 00:25:13
Time 05:24:30 | Step 92805 / 100000 | TPS 4.79188 | ETA 00:25:01
Time 05:24:40 | Step 92853 / 100000 | TPS 4.77891 | ETA 00:24:55
Time 05:24:50 | Step 92901 / 100000 | TPS 4.78674 | ETA 00:24:43
Time 05:25:00 | Step 92949 / 100000 | TPS 4.78513 | ETA 00:24:33
Time 05:25:10 | Step 92997 / 100000 | TPS 4.78019 | ETA 00:24:25
Time 05:25:21 | Step 93043 / 100000 | TPS 4.45091 | ETA 00:26:03
Time 05:25:31 | Step 93091 / 100000 | TPS 4.78265 | ETA 00:24:04
Time 05:25:41 | Step 93139 / 100000 | TPS 4.7798 | ETA 00:23:55
Time 05:25:51 | Step 93187 / 100000 | TPS 4.77849 | ETA 00:23:45
Time 05:26:01 | Step 93235 / 100000 | TPS 4.77834 | ETA 00:23:35
Time 05:26:11 | Step 93283 / 100000 | TPS 4.7784 | ETA 00:23:25
Time 05:26:21 | Step 93331 / 100000 | TPS 4.78242 | ETA 00:23:14
Time 05:26:31 | Step 93379 / 100000 | TPS 4.78846 | ETA 00:23:02
Time 05:26:41 | Step 93427 / 100000 | TPS 4.78497 | ETA 00:22:53
Time 05:26:51 | Step 93475 / 100000 | TPS 4.77834 | ETA 00:22:45
Time 05:27:01 | Step 93523 / 100000 | TPS 4.78625 | ETA 00:22:33
Time 05:27:11 | Step 93571 / 100000 | TPS 4.78231 | ETA 00:22:24
Time 05:27:21 | Step 93619 / 100000 | TPS 4.78247 | ETA 00:22:14
Time 05:27:31 | Step 93667 / 100000 | TPS 4.79509 | ETA 00:22:00
Time 05:27:41 | Step 93715 / 100000 | TPS 4.79046 | ETA 00:21:51
Time 05:27:51 | Step 93763 / 100000 | TPS 4.78605 | ETA 00:21:43
Time 05:28:01 | Step 93811 / 100000 | TPS 4.78554 | ETA 00:21:33
Time 05:28:11 | Step 93859 / 100000 | TPS 4.77822 | ETA 00:21:25
Time 05:28:21 | Step 93907 / 100000 | TPS 4.77056 | ETA 00:21:17
Time 05:28:31 | Step 93955 / 100000 | TPS 4.78926 | ETA 00:21:02
Time 05:28:42 | Step 94001 / 100000 | TPS 4.45506 | ETA 00:22:26
Time 05:28:52 | Step 94049 / 100000 | TPS 4.78697 | ETA 00:20:43
Time 05:29:02 | Step 94097 / 100000 | TPS 4.78331 | ETA 00:20:34
Time 05:29:12 | Step 94145 / 100000 | TPS 4.7763 | ETA 00:20:25
Time 05:29:22 | Step 94193 / 100000 | TPS 4.77517 | ETA 00:20:16
Time 05:29:32 | Step 94241 / 100000 | TPS 4.78044 | ETA 00:20:04
Time 05:29:42 | Step 94289 / 100000 | TPS 4.78578 | ETA 00:19:53
Time 05:29:52 | Step 94337 / 100000 | TPS 4.78433 | ETA 00:19:43
Time 05:30:02 | Step 94385 / 100000 | TPS 4.77495 | ETA 00:19:35
Time 05:30:12 | Step 94433 / 100000 | TPS 4.77975 | ETA 00:19:24
Time 05:30:22 | Step 94481 / 100000 | TPS 4.77228 | ETA 00:19:16
Time 05:30:32 | Step 94529 / 100000 | TPS 4.77974 | ETA 00:19:04
Time 05:30:42 | Step 94577 / 100000 | TPS 4.78108 | ETA 00:18:54
Time 05:30:52 | Step 94625 / 100000 | TPS 4.77669 | ETA 00:18:45
Time 05:31:02 | Step 94673 / 100000 | TPS 4.77674 | ETA 00:18:35
Time 05:31:12 | Step 94721 / 100000 | TPS 4.77174 | ETA 00:18:26
Time 05:31:22 | Step 94769 / 100000 | TPS 4.77245 | ETA 00:18:16
Time 05:31:32 | Step 94817 / 100000 | TPS 4.77216 | ETA 00:18:06
Time 05:31:43 | Step 94865 / 100000 | TPS 4.79192 | ETA 00:17:51
Time 05:31:53 | Step 94913 / 100000 | TPS 4.78267 | ETA 00:17:43
Time 05:32:03 | Step 94961 / 100000 | TPS 4.77337 | ETA 00:17:35
Time 05:32:13 | Step 95007 / 100000 | TPS 4.43502 | ETA 00:18:45
Time 05:32:23 | Step 95055 / 100000 | TPS 4.77332 | ETA 00:17:15
Time 05:32:33 | Step 95103 / 100000 | TPS 4.76696 | ETA 00:17:07
Time 05:32:43 | Step 95151 / 100000 | TPS 4.78922 | ETA 00:16:52
Time 05:32:53 | Step 95199 / 100000 | TPS 4.78643 | ETA 00:16:43
Time 05:33:03 | Step 95247 / 100000 | TPS 4.77756 | ETA 00:16:34
Time 05:33:13 | Step 95295 / 100000 | TPS 4.77933 | ETA 00:16:24
Time 05:33:23 | Step 95343 / 100000 | TPS 4.77495 | ETA 00:16:15
Time 05:33:33 | Step 95391 / 100000 | TPS 4.7782 | ETA 00:16:04
Time 05:33:43 | Step 95439 / 100000 | TPS 4.78034 | ETA 00:15:54
Time 05:33:53 | Step 95487 / 100000 | TPS 4.7845 | ETA 00:15:43
Time 05:34:03 | Step 95535 / 100000 | TPS 4.78035 | ETA 00:15:34
Time 05:34:13 | Step 95583 / 100000 | TPS 4.7802 | ETA 00:15:24
Time 05:34:24 | Step 95631 / 100000 | TPS 4.77081 | ETA 00:15:15
Time 05:34:34 | Step 95679 / 100000 | TPS 4.77534 | ETA 00:15:04
Time 05:34:44 | Step 95727 / 100000 | TPS 4.77342 | ETA 00:14:55
Time 05:34:54 | Step 95775 / 100000 | TPS 4.77937 | ETA 00:14:44
Time 05:35:04 | Step 95823 / 100000 | TPS 4.775 | ETA 00:14:34
Time 05:35:14 | Step 95871 / 100000 | TPS 4.77383 | ETA 00:14:24
Time 05:35:24 | Step 95919 / 100000 | TPS 4.76707 | ETA 00:14:16
Time 05:35:34 | Step 95967 / 100000 | TPS 4.77193 | ETA 00:14:05
Time 05:35:44 | Step 96013 / 100000 | TPS 4.42971 | ETA 00:15:00
Time 05:35:54 | Step 96061 / 100000 | TPS 4.77721 | ETA 00:13:44
Time 05:36:04 | Step 96109 / 100000 | TPS 4.77741 | ETA 00:13:34
Time 05:36:15 | Step 96157 / 100000 | TPS 4.76077 | ETA 00:13:27
Time 05:36:25 | Step 96205 / 100000 | TPS 4.7734 | ETA 00:13:15
Time 05:36:35 | Step 96253 / 100000 | TPS 4.77684 | ETA 00:13:04
Time 05:36:45 | Step 96301 / 100000 | TPS 4.76592 | ETA 00:12:56
Time 05:36:55 | Step 96349 / 100000 | TPS 4.78691 | ETA 00:12:42
Time 05:37:05 | Step 96397 / 100000 | TPS 4.78442 | ETA 00:12:33
Time 05:37:15 | Step 96445 / 100000 | TPS 4.77402 | ETA 00:12:24
Time 05:37:25 | Step 96493 / 100000 | TPS 4.78043 | ETA 00:12:13
Time 05:37:35 | Step 96541 / 100000 | TPS 4.77589 | ETA 00:12:04
Time 05:37:45 | Step 96589 / 100000 | TPS 4.77431 | ETA 00:11:54
Time 05:37:55 | Step 96637 / 100000 | TPS 4.77632 | ETA 00:11:44
Time 05:38:05 | Step 96685 / 100000 | TPS 4.78052 | ETA 00:11:33
Time 05:38:15 | Step 96733 / 100000 | TPS 4.77776 | ETA 00:11:23
Time 05:38:25 | Step 96781 / 100000 | TPS 4.77943 | ETA 00:11:13
Time 05:38:35 | Step 96829 / 100000 | TPS 4.77386 | ETA 00:11:04
Time 05:38:45 | Step 96877 / 100000 | TPS 4.77531 | ETA 00:10:53
Time 05:38:55 | Step 96925 / 100000 | TPS 4.77146 | ETA 00:10:44
Time 05:39:05 | Step 96973 / 100000 | TPS 4.78271 | ETA 00:10:32
Time 05:39:16 | Step 97019 / 100000 | TPS 4.44238 | ETA 00:11:11
Time 05:39:26 | Step 97067 / 100000 | TPS 4.77256 | ETA 00:10:14
Time 05:39:36 | Step 97115 / 100000 | TPS 4.76574 | ETA 00:10:05
Time 05:39:46 | Step 97163 / 100000 | TPS 4.76757 | ETA 00:09:55
Time 05:39:56 | Step 97211 / 100000 | TPS 4.76796 | ETA 00:09:44
Time 05:40:06 | Step 97259 / 100000 | TPS 4.7798 | ETA 00:09:33
Time 05:40:16 | Step 97307 / 100000 | TPS 4.7783 | ETA 00:09:23
Time 05:40:26 | Step 97355 / 100000 | TPS 4.7728 | ETA 00:09:14
Time 05:40:36 | Step 97403 / 100000 | TPS 4.77072 | ETA 00:09:04
Time 05:40:46 | Step 97451 / 100000 | TPS 4.7689 | ETA 00:08:54
Time 05:40:56 | Step 97499 / 100000 | TPS 4.76606 | ETA 00:08:44
Time 05:41:06 | Step 97547 / 100000 | TPS 4.77521 | ETA 00:08:33
Time 05:41:16 | Step 97595 / 100000 | TPS 4.78331 | ETA 00:08:22
Time 05:41:26 | Step 97643 / 100000 | TPS 4.78012 | ETA 00:08:13
Time 05:41:36 | Step 97691 / 100000 | TPS 4.77794 | ETA 00:08:03
Time 05:41:47 | Step 97739 / 100000 | TPS 4.77417 | ETA 00:07:53
Time 05:41:57 | Step 97787 / 100000 | TPS 4.77683 | ETA 00:07:43
Time 05:42:07 | Step 97835 / 100000 | TPS 4.78207 | ETA 00:07:32
Time 05:42:17 | Step 97883 / 100000 | TPS 4.78464 | ETA 00:07:22
Time 05:42:27 | Step 97931 / 100000 | TPS 4.77116 | ETA 00:07:13
Time 05:42:37 | Step 97979 / 100000 | TPS 4.77327 | ETA 00:07:03
Time 05:42:47 | Step 98025 / 100000 | TPS 4.4363 | ETA 00:07:25
Time 05:42:57 | Step 98073 / 100000 | TPS 4.76906 | ETA 00:06:44
Time 05:43:07 | Step 98121 / 100000 | TPS 4.76925 | ETA 00:06:33
Time 05:43:17 | Step 98169 / 100000 | TPS 4.77971 | ETA 00:06:23
Time 05:43:27 | Step 98217 / 100000 | TPS 4.77219 | ETA 00:06:13
Time 05:43:37 | Step 98265 / 100000 | TPS 4.77789 | ETA 00:06:03
Time 05:43:47 | Step 98313 / 100000 | TPS 4.7725 | ETA 00:05:53
Time 05:43:58 | Step 98361 / 100000 | TPS 4.76973 | ETA 00:05:43
Time 05:44:08 | Step 98409 / 100000 | TPS 4.75881 | ETA 00:05:34
Time 05:44:18 | Step 98457 / 100000 | TPS 4.77486 | ETA 00:05:23
Time 05:44:28 | Step 98505 / 100000 | TPS 4.77199 | ETA 00:05:13
Time 05:44:38 | Step 98553 / 100000 | TPS 4.76726 | ETA 00:05:03
Time 05:44:48 | Step 98601 / 100000 | TPS 4.76715 | ETA 00:04:53
Time 05:44:58 | Step 98649 / 100000 | TPS 4.76822 | ETA 00:04:43
Time 05:45:08 | Step 98697 / 100000 | TPS 4.76327 | ETA 00:04:33
Time 05:45:18 | Step 98745 / 100000 | TPS 4.76627 | ETA 00:04:23
Time 05:45:28 | Step 98793 / 100000 | TPS 4.77095 | ETA 00:04:12
Time 05:45:38 | Step 98841 / 100000 | TPS 4.76856 | ETA 00:04:03
Time 05:45:48 | Step 98889 / 100000 | TPS 4.767 | ETA 00:03:53
Time 05:45:58 | Step 98937 / 100000 | TPS 4.76911 | ETA 00:03:42
Time 05:46:08 | Step 98985 / 100000 | TPS 4.76938 | ETA 00:03:32
Time 05:46:19 | Step 99031 / 100000 | TPS 4.42897 | ETA 00:03:38
Time 05:46:29 | Step 99079 / 100000 | TPS 4.77735 | ETA 00:03:12
Time 05:46:39 | Step 99127 / 100000 | TPS 4.7737 | ETA 00:03:02
Time 05:46:49 | Step 99175 / 100000 | TPS 4.77571 | ETA 00:02:52
Time 05:46:59 | Step 99223 / 100000 | TPS 4.77535 | ETA 00:02:42
Time 05:47:09 | Step 99271 / 100000 | TPS 4.77253 | ETA 00:02:32
Time 05:47:19 | Step 99319 / 100000 | TPS 4.76287 | ETA 00:02:22
Time 05:47:29 | Step 99367 / 100000 | TPS 4.77829 | ETA 00:02:12
Time 05:47:39 | Step 99415 / 100000 | TPS 4.77333 | ETA 00:02:02
Time 05:47:49 | Step 99463 / 100000 | TPS 4.77346 | ETA 00:01:52
Time 05:47:59 | Step 99511 / 100000 | TPS 4.77851 | ETA 00:01:42
Time 05:48:09 | Step 99559 / 100000 | TPS 4.77636 | ETA 00:01:32
Time 05:48:19 | Step 99607 / 100000 | TPS 4.75889 | ETA 00:01:22
Time 05:48:29 | Step 99655 / 100000 | TPS 4.78327 | ETA 00:01:12
Time 05:48:40 | Step 99703 / 100000 | TPS 4.77839 | ETA 00:01:02
Time 05:48:50 | Step 99751 / 100000 | TPS 4.76709 | ETA 00:00:52
Time 05:49:00 | Step 99799 / 100000 | TPS 4.76985 | ETA 00:00:42
Time 05:49:10 | Step 99847 / 100000 | TPS 4.75875 | ETA 00:00:32
Time 05:49:20 | Step 99895 / 100000 | TPS 4.76684 | ETA 00:00:22
Time 05:49:30 | Step 99943 / 100000 | TPS 4.76609 | ETA 00:00:11
Time 05:49:40 | Step 99991 / 100000 | TPS 4.76778 | ETA 00:00:01
Time 05:49:42 | Step 100000 / 100000 | TPS 5.25895 | ETA 00:00:00
Average TPS: 4.76618
---------
-- Neighborlist stats:
49646 normal updates / 334 forced updates / 0 dangerous updates
n_neigh_min: 8 / n_neigh_max: 208 / n_neigh_avg: 157.262
shortest rebuild period: 1
** run complete **
