[33mWARNING: Skipping user bind, non existent bind point (file) in container: '/usr/bin/nvidia-smi'
[0m[33mWARNING: Skipping user bind, non existent bind point (file) in container: '/usr/bin/nvidia-debugdump'
[0m[33mWARNING: Skipping user bind, non existent bind point (file) in container: '/usr/bin/nvidia-persistenced'
[0m[33mWARNING: Skipping user bind, non existent bind point (file) in container: '/usr/bin/nvidia-cuda-mps-control'
[0m[33mWARNING: Skipping user bind, non existent bind point (file) in container: '/usr/bin/nvidia-cuda-mps-server'
[0m**ERROR**: nlist.tree(): Particle 53903 is out of bounds (x: 779.137, y: 57.4889, z: -52.6733, fx: 6.14698, fy: 0.916664, fz:0.118238)
HOOMD-blue 2.3.5 CUDA (8.0) DOUBLE HPMC_MIXED TBB SSE SSE2 
Compiled: 10/08/18
Copyright 2009-2018 The Regents of the University of Michigan.
-----
You are using HOOMD-blue. Please cite the following:
* J A Anderson, C D Lorenz, and A Travesset. "General purpose molecular dynamics
  simulations fully implemented on graphics processing units", Journal of
  Computational Physics 227 (2008) 5342--5359
* J Glaser, T D Nguyen, J A Anderson, P Liu, F Spiga, J A Millan, D C Morse, and
  S C Glotzer. "Strong scaling of general-purpose molecular dynamics simulations
  on GPUs", Computer Physics Communications 192 (2015) 97--107
-----
notice(2): This system is not compute exclusive, using local rank to select GPUs
HOOMD-blue is running on the following GPU(s):
 [0]            Tesla K20m  13 SM_3.5 @ 0.706 GHz, 4743 MiB DRAM
Equilibrium_T_5_6.py:029  |  system = hoomd.init.read_snapshot(snap)
notice(2): Group "all" created containing 64256 particles
Equilibrium_T_5_6.py:033  |  rigid = hoomd.md.constrain.rigid();
notice(2): constrain.rigid(): Creating 64000 rigid bodies (adding 512000 particles)
Equilibrium_T_5_6.py:045  |  nl = hoomd.md.nlist.tree();
-----
You are using tree neighbor lists. Please cite the following:
* M P Howard, J A Anderson, A Nikoubashman, S C Glotzer, and A Z
  Panagiotopoulos. "Efficient neighbor list calculation for molecular simulation
  of colloidal systems using graphics processing units", Computer Physics
  Communications 203 (2016) 45--52
-----
Equilibrium_T_5_6.py:047  |  lj = hoomd.md.pair.lj(r_cut = 3.5, nlist = nl)
Equilibrium_T_5_6.py:048  |  lj.set_params(mode = 'shift')
Equilibrium_T_5_6.py:052  |  lj.pair_coeff.set('NP','NP', epsilon = 1.0, sigma = 5.0);
Equilibrium_T_5_6.py:053  |  lj.pair_coeff.set('M' ,'M' , epsilon = 1.0, sigma = 1.0);
Equilibrium_T_5_6.py:054  |  lj.pair_coeff.set('A' ,'A' , epsilon = 1.0, sigma = 1.0);
Equilibrium_T_5_6.py:055  |  lj.pair_coeff.set('M' ,'A' , epsilon = 1.0, sigma = 1.0);
Equilibrium_T_5_6.py:056  |  lj.pair_coeff.set('NP','M' , epsilon = 1.0, sigma = 3.0);
Equilibrium_T_5_6.py:057  |  lj.pair_coeff.set('NP','A' , epsilon = 1.0, sigma = 3.0);
Equilibrium_T_5_6.py:061  |  hoomd.md.integrate.mode_standard(dt = 0.005);
Equilibrium_T_5_6.py:065  |  nanoparticles = hoomd.group.type(name = 'Nano_Particles', type = 'NP');
notice(2): Group "Nano_Particles" created containing 256 particles
Equilibrium_T_5_6.py:066  |  mesogens = hoomd.group.rigid_center();
notice(2): Group "rigid_center" created containing 64000 particles
notice(2): Group "NP_Mes" created containing 64256 particles
Equilibrium_T_5_6.py:073  |  npt = hoomd.md.integrate.npt(group = groupNP_mes, kT = t_max, tau = 1.0, tauP = 1.0, P = p_max);
Equilibrium_T_5_6.py:081  |  log = hoomd.analyze.log(filename = log_file,
                         quantities = ['num_particles',
                                     'ndof',
                                     'translational_ndof',
                                     'rotational_ndof',
                                     'potential_energy',
                                     'kinetic_energy',
                                     'translational_kinetic_energy',
                                     'rotational_kinetic_energy',
                                     'temperature',
                                     'pressure',
                                      'volume'],
                         period = 1e3,
                         overwrite = True);
Equilibrium_T_5_6.py:097  |                 group = hoomd.group.all(),
Equilibrium_T_5_6.py:095  |  gsd = hoomd.dump.gsd(gsd_file,
               period = 1e3,
               group = hoomd.group.all(),
               overwrite = True); 
Equilibrium_T_5_6.py:099  |  meso_gsd = hoomd.dump.gsd(meso_gsd_file,
               period = 1e3,
               group = mesogens,
               overwrite = True); 
Equilibrium_T_5_6.py:108  |  hoomd.run(steps)
notice(2): -- Neighborlist exclusion statistics -- :
notice(2): Particles with 0 exclusions             : 576256
notice(2): Neighbors included by diameter          : no
notice(2): Neighbors excluded when in the same body: yes
** starting run **
Time 00:00:11 | Step 27 / 100000 | TPS 2.66246 | ETA 10:25:49
Time 00:00:21 | Step 71 / 100000 | TPS 4.31792 | ETA 06:25:42
Time 00:00:31 | Step 122 / 100000 | TPS 4.88588 | ETA 05:40:42
Time 00:00:42 | Step 177 / 100000 | TPS 5.20489 | ETA 05:19:38
Time 00:00:52 | Step 209 / 100000 | TPS 3.13505 | ETA 08:50:30
Time 00:01:02 | Step 243 / 100000 | TPS 3.30653 | ETA 08:22:49
Time 00:01:13 | Step 281 / 100000 | TPS 3.66877 | ETA 07:33:00
Time 00:01:23 | Step 323 / 100000 | TPS 4.19122 | ETA 06:36:22
Time 00:01:33 | Step 369 / 100000 | TPS 4.43602 | ETA 06:14:19
Time 00:01:43 | Step 415 / 100000 | TPS 4.47379 | ETA 06:10:59
Time 00:01:53 | Step 459 / 100000 | TPS 4.36359 | ETA 06:20:11
Time 00:02:04 | Step 505 / 100000 | TPS 4.56789 | ETA 06:03:01
Time 00:02:14 | Step 551 / 100000 | TPS 4.56773 | ETA 06:02:52
Time 00:02:24 | Step 598 / 100000 | TPS 4.68825 | ETA 05:53:22
Time 00:02:34 | Step 645 / 100000 | TPS 4.56097 | ETA 06:03:03
Time 00:02:44 | Step 692 / 100000 | TPS 4.69164 | ETA 05:52:47
Time 00:02:54 | Step 739 / 100000 | TPS 4.61119 | ETA 05:58:46
Time 00:03:04 | Step 785 / 100000 | TPS 4.58241 | ETA 06:00:51
Time 00:03:14 | Step 833 / 100000 | TPS 4.70703 | ETA 05:51:07
Time 00:03:24 | Step 879 / 100000 | TPS 4.57613 | ETA 06:01:00
Time 00:03:35 | Step 927 / 100000 | TPS 4.67695 | ETA 05:53:03
Time 00:03:45 | Step 973 / 100000 | TPS 4.56157 | ETA 06:01:48
Time 00:03:55 | Step 1020 / 100000 | TPS 4.68824 | ETA 05:51:52
Time 00:04:05 | Step 1069 / 100000 | TPS 4.85632 | ETA 05:39:31
Time 00:04:15 | Step 1119 / 100000 | TPS 4.93783 | ETA 05:33:45
Time 00:04:25 | Step 1169 / 100000 | TPS 4.93296 | ETA 05:33:54
Time 00:04:35 | Step 1219 / 100000 | TPS 4.93503 | ETA 05:33:36
Time 00:04:45 | Step 1269 / 100000 | TPS 4.9404 | ETA 05:33:04
Time 00:04:56 | Step 1319 / 100000 | TPS 4.93706 | ETA 05:33:07
Time 00:05:06 | Step 1369 / 100000 | TPS 4.93278 | ETA 05:33:15
Time 00:05:16 | Step 1419 / 100000 | TPS 4.92965 | ETA 05:33:17
Time 00:05:26 | Step 1469 / 100000 | TPS 4.93515 | ETA 05:32:45
Time 00:05:36 | Step 1519 / 100000 | TPS 4.93801 | ETA 05:32:23
Time 00:05:46 | Step 1569 / 100000 | TPS 4.93817 | ETA 05:32:12
Time 00:05:56 | Step 1617 / 100000 | TPS 4.77374 | ETA 05:43:29
Time 00:06:06 | Step 1667 / 100000 | TPS 4.93046 | ETA 05:32:23
Time 00:06:17 | Step 1717 / 100000 | TPS 4.92565 | ETA 05:32:33
Time 00:06:27 | Step 1767 / 100000 | TPS 4.92606 | ETA 05:32:21
Time 00:06:37 | Step 1817 / 100000 | TPS 4.92658 | ETA 05:32:09
Time 00:06:47 | Step 1867 / 100000 | TPS 4.93712 | ETA 05:31:16
Time 00:06:57 | Step 1917 / 100000 | TPS 4.93994 | ETA 05:30:55
Time 00:07:07 | Step 1967 / 100000 | TPS 4.93712 | ETA 05:30:56
Time 00:07:17 | Step 2013 / 100000 | TPS 4.59232 | ETA 05:55:37
Time 00:07:27 | Step 2063 / 100000 | TPS 4.9346 | ETA 05:30:46
Time 00:07:38 | Step 2113 / 100000 | TPS 4.92886 | ETA 05:30:59
Time 00:07:48 | Step 2163 / 100000 | TPS 4.94454 | ETA 05:29:46
Time 00:07:58 | Step 2213 / 100000 | TPS 4.94276 | ETA 05:29:43
Time 00:08:08 | Step 2263 / 100000 | TPS 4.93797 | ETA 05:29:52
Time 00:08:18 | Step 2313 / 100000 | TPS 4.93931 | ETA 05:29:37
Time 00:08:28 | Step 2363 / 100000 | TPS 4.93753 | ETA 05:29:34
Time 00:08:38 | Step 2413 / 100000 | TPS 4.93326 | ETA 05:29:41
Time 00:08:48 | Step 2463 / 100000 | TPS 4.95064 | ETA 05:28:21
Time 00:08:58 | Step 2513 / 100000 | TPS 4.94611 | ETA 05:28:29
Time 00:09:09 | Step 2563 / 100000 | TPS 4.93656 | ETA 05:28:57
Time 00:09:19 | Step 2613 / 100000 | TPS 4.92879 | ETA 05:29:18
Time 00:09:29 | Step 2663 / 100000 | TPS 4.93231 | ETA 05:28:54
Time 00:09:39 | Step 2713 / 100000 | TPS 4.92793 | ETA 05:29:01
Time 00:09:49 | Step 2763 / 100000 | TPS 4.94415 | ETA 05:27:47
Time 00:09:59 | Step 2813 / 100000 | TPS 4.92911 | ETA 05:28:36
Time 00:10:09 | Step 2863 / 100000 | TPS 4.94095 | ETA 05:27:39
Time 00:10:20 | Step 2913 / 100000 | TPS 4.93335 | ETA 05:27:59
Time 00:10:30 | Step 2963 / 100000 | TPS 4.92786 | ETA 05:28:11
Time 00:10:40 | Step 3009 / 100000 | TPS 4.58514 | ETA 05:52:33
Time 00:10:50 | Step 3059 / 100000 | TPS 4.94243 | ETA 05:26:54
Time 00:11:00 | Step 3109 / 100000 | TPS 4.93281 | ETA 05:27:22
Time 00:11:10 | Step 3159 / 100000 | TPS 4.92145 | ETA 05:27:57
Time 00:11:20 | Step 3209 / 100000 | TPS 4.91607 | ETA 05:28:08
Time 00:11:30 | Step 3259 / 100000 | TPS 4.91675 | ETA 05:27:55
Time 00:11:41 | Step 3309 / 100000 | TPS 4.9199 | ETA 05:27:33
Time 00:11:51 | Step 3359 / 100000 | TPS 4.93819 | ETA 05:26:10
Time 00:12:01 | Step 3407 / 100000 | TPS 4.76925 | ETA 05:37:33
Time 00:12:11 | Step 3457 / 100000 | TPS 4.9436 | ETA 05:25:28
Time 00:12:21 | Step 3507 / 100000 | TPS 4.94162 | ETA 05:25:26
Time 00:12:31 | Step 3557 / 100000 | TPS 4.95214 | ETA 05:24:35
Time 00:12:41 | Step 3607 / 100000 | TPS 4.93291 | ETA 05:25:40
Time 00:12:51 | Step 3657 / 100000 | TPS 4.95385 | ETA 05:24:08
Time 00:13:01 | Step 3707 / 100000 | TPS 4.95383 | ETA 05:23:58
Time 00:13:12 | Step 3757 / 100000 | TPS 4.95504 | ETA 05:23:43
Time 00:13:22 | Step 3807 / 100000 | TPS 4.94307 | ETA 05:24:20
Time 00:13:32 | Step 3857 / 100000 | TPS 4.94935 | ETA 05:23:45
Time 00:13:42 | Step 3907 / 100000 | TPS 4.94815 | ETA 05:23:39
Time 00:13:52 | Step 3957 / 100000 | TPS 4.95334 | ETA 05:23:09
Time 00:14:02 | Step 4004 / 100000 | TPS 4.69784 | ETA 05:40:34
Time 00:14:12 | Step 4053 / 100000 | TPS 4.86521 | ETA 05:28:41
Time 00:14:22 | Step 4103 / 100000 | TPS 4.95236 | ETA 05:22:43
Time 00:14:32 | Step 4153 / 100000 | TPS 4.94887 | ETA 05:22:47
Time 00:14:42 | Step 4203 / 100000 | TPS 4.93736 | ETA 05:23:22
Time 00:14:52 | Step 4253 / 100000 | TPS 4.95585 | ETA 05:22:00
Time 00:15:03 | Step 4303 / 100000 | TPS 4.95605 | ETA 05:21:49
Time 00:15:13 | Step 4353 / 100000 | TPS 4.94676 | ETA 05:22:15
Time 00:15:23 | Step 4403 / 100000 | TPS 4.94697 | ETA 05:22:04
Time 00:15:33 | Step 4453 / 100000 | TPS 4.95037 | ETA 05:21:40
Time 00:15:43 | Step 4503 / 100000 | TPS 4.93463 | ETA 05:22:32
Time 00:15:53 | Step 4553 / 100000 | TPS 4.94933 | ETA 05:21:24
Time 00:16:03 | Step 4603 / 100000 | TPS 4.95459 | ETA 05:20:54
Time 00:16:13 | Step 4653 / 100000 | TPS 4.94833 | ETA 05:21:08
Time 00:16:23 | Step 4703 / 100000 | TPS 4.94713 | ETA 05:21:03
Time 00:16:34 | Step 4753 / 100000 | TPS 4.93981 | ETA 05:21:21
Time 00:16:44 | Step 4803 / 100000 | TPS 4.93835 | ETA 05:21:17
Time 00:16:54 | Step 4853 / 100000 | TPS 4.94639 | ETA 05:20:35
Time 00:17:04 | Step 4903 / 100000 | TPS 4.94333 | ETA 05:20:37
Time 00:17:14 | Step 4953 / 100000 | TPS 4.94004 | ETA 05:20:40
Time 00:17:24 | Step 5001 / 100000 | TPS 4.61042 | ETA 05:43:25
Time 00:17:35 | Step 5051 / 100000 | TPS 4.94736 | ETA 05:19:51
Time 00:17:45 | Step 5101 / 100000 | TPS 4.93315 | ETA 05:20:37
Time 00:17:55 | Step 5151 / 100000 | TPS 4.95302 | ETA 05:19:09
Time 00:18:05 | Step 5201 / 100000 | TPS 4.951 | ETA 05:19:07
Time 00:18:15 | Step 5251 / 100000 | TPS 4.9461 | ETA 05:19:16
Time 00:18:25 | Step 5301 / 100000 | TPS 4.94536 | ETA 05:19:09
Time 00:18:35 | Step 5351 / 100000 | TPS 4.93896 | ETA 05:19:23
Time 00:18:45 | Step 5401 / 100000 | TPS 4.9339 | ETA 05:19:33
Time 00:18:55 | Step 5451 / 100000 | TPS 4.95942 | ETA 05:17:44
Time 00:19:06 | Step 5501 / 100000 | TPS 4.95867 | ETA 05:17:37
Time 00:19:16 | Step 5551 / 100000 | TPS 4.95124 | ETA 05:17:55
Time 00:19:26 | Step 5601 / 100000 | TPS 4.96091 | ETA 05:17:08
Time 00:19:36 | Step 5651 / 100000 | TPS 4.95268 | ETA 05:17:30
Time 00:19:46 | Step 5701 / 100000 | TPS 4.93594 | ETA 05:18:24
Time 00:19:56 | Step 5751 / 100000 | TPS 4.96578 | ETA 05:16:19
Time 00:20:06 | Step 5801 / 100000 | TPS 4.95786 | ETA 05:16:39
Time 00:20:16 | Step 5851 / 100000 | TPS 4.96309 | ETA 05:16:09
Time 00:20:26 | Step 5901 / 100000 | TPS 4.95382 | ETA 05:16:35
Time 00:20:36 | Step 5951 / 100000 | TPS 4.94779 | ETA 05:16:48
Time 00:20:47 | Step 6001 / 100000 | TPS 4.625 | ETA 05:38:44
Time 00:20:57 | Step 6051 / 100000 | TPS 4.95779 | ETA 05:15:49
Time 00:21:07 | Step 6101 / 100000 | TPS 4.96104 | ETA 05:15:27
Time 00:21:17 | Step 6151 / 100000 | TPS 4.95284 | ETA 05:15:48
Time 00:21:28 | Step 6201 / 100000 | TPS 4.94699 | ETA 05:16:00
Time 00:21:38 | Step 6251 / 100000 | TPS 4.94977 | ETA 05:15:40
Time 00:21:48 | Step 6301 / 100000 | TPS 4.93564 | ETA 05:16:24
Time 00:21:58 | Step 6351 / 100000 | TPS 4.95142 | ETA 05:15:13
Time 00:22:08 | Step 6401 / 100000 | TPS 4.94321 | ETA 05:15:34
Time 00:22:18 | Step 6451 / 100000 | TPS 4.95093 | ETA 05:14:55
Time 00:22:28 | Step 6501 / 100000 | TPS 4.93693 | ETA 05:15:38
Time 00:22:38 | Step 6551 / 100000 | TPS 4.93926 | ETA 05:15:19
Time 00:22:48 | Step 6601 / 100000 | TPS 4.93328 | ETA 05:15:32
Time 00:22:59 | Step 6651 / 100000 | TPS 4.95131 | ETA 05:14:13
Time 00:23:09 | Step 6701 / 100000 | TPS 4.93931 | ETA 05:14:49
Time 00:23:19 | Step 6751 / 100000 | TPS 4.94003 | ETA 05:14:36
Time 00:23:29 | Step 6801 / 100000 | TPS 4.94168 | ETA 05:14:19
Time 00:23:39 | Step 6851 / 100000 | TPS 4.9375 | ETA 05:14:25
Time 00:23:49 | Step 6901 / 100000 | TPS 4.92894 | ETA 05:14:48
Time 00:23:59 | Step 6951 / 100000 | TPS 4.94879 | ETA 05:13:22
Time 00:24:10 | Step 7001 / 100000 | TPS 4.62188 | ETA 05:35:21
Time 00:24:20 | Step 7051 / 100000 | TPS 4.93928 | ETA 05:13:38
Time 00:24:30 | Step 7101 / 100000 | TPS 4.93528 | ETA 05:13:43
Time 00:24:40 | Step 7151 / 100000 | TPS 4.94008 | ETA 05:13:15
Time 00:24:51 | Step 7201 / 100000 | TPS 4.92562 | ETA 05:14:00
Time 00:25:01 | Step 7251 / 100000 | TPS 4.9531 | ETA 05:12:05
Time 00:25:11 | Step 7301 / 100000 | TPS 4.95112 | ETA 05:12:02
Time 00:25:21 | Step 7351 / 100000 | TPS 4.93892 | ETA 05:12:38
Time 00:25:31 | Step 7401 / 100000 | TPS 4.9452 | ETA 05:12:05
Time 00:25:41 | Step 7451 / 100000 | TPS 4.94695 | ETA 05:11:48
Time 00:25:51 | Step 7501 / 100000 | TPS 4.93676 | ETA 05:12:16
Time 00:26:01 | Step 7551 / 100000 | TPS 4.95684 | ETA 05:10:50
Time 00:26:11 | Step 7601 / 100000 | TPS 4.94902 | ETA 05:11:10
Time 00:26:22 | Step 7651 / 100000 | TPS 4.94755 | ETA 05:11:05
Time 00:26:32 | Step 7701 / 100000 | TPS 4.93951 | ETA 05:11:25
Time 00:26:42 | Step 7751 / 100000 | TPS 4.94145 | ETA 05:11:08
Time 00:26:52 | Step 7801 / 100000 | TPS 4.93759 | ETA 05:11:12
Time 00:27:02 | Step 7851 / 100000 | TPS 4.96205 | ETA 05:09:30
Time 00:27:12 | Step 7901 / 100000 | TPS 4.94088 | ETA 05:10:40
Time 00:27:22 | Step 7951 / 100000 | TPS 4.9433 | ETA 05:10:20
Time 00:27:33 | Step 8001 / 100000 | TPS 4.61331 | ETA 05:32:22
Time 00:27:43 | Step 8051 / 100000 | TPS 4.93227 | ETA 05:10:42
Time 00:27:53 | Step 8101 / 100000 | TPS 4.93246 | ETA 05:10:31
Time 00:28:03 | Step 8151 / 100000 | TPS 4.94894 | ETA 05:09:19
Time 00:28:14 | Step 8201 / 100000 | TPS 4.94412 | ETA 05:09:27
Time 00:28:24 | Step 8251 / 100000 | TPS 4.93751 | ETA 05:09:42
Time 00:28:34 | Step 8301 / 100000 | TPS 4.93878 | ETA 05:09:27
Time 00:28:44 | Step 8351 / 100000 | TPS 4.93156 | ETA 05:09:44
Time 00:28:54 | Step 8401 / 100000 | TPS 4.92212 | ETA 05:10:09
Time 00:29:04 | Step 8451 / 100000 | TPS 4.94077 | ETA 05:08:49
Time 00:29:14 | Step 8501 / 100000 | TPS 4.94613 | ETA 05:08:19
Time 00:29:24 | Step 8551 / 100000 | TPS 4.93378 | ETA 05:08:55
Time 00:29:35 | Step 8601 / 100000 | TPS 4.93498 | ETA 05:08:40
Time 00:29:45 | Step 8651 / 100000 | TPS 4.92865 | ETA 05:08:54
Time 00:29:55 | Step 8701 / 100000 | TPS 4.9279 | ETA 05:08:46
Time 00:30:05 | Step 8751 / 100000 | TPS 4.9495 | ETA 05:07:16
Time 00:30:15 | Step 8801 / 100000 | TPS 4.93267 | ETA 05:08:08
Time 00:30:25 | Step 8851 / 100000 | TPS 4.942 | ETA 05:07:23
Time 00:30:35 | Step 8901 / 100000 | TPS 4.93508 | ETA 05:07:39
Time 00:30:46 | Step 8951 / 100000 | TPS 4.93253 | ETA 05:07:38
Time 00:30:56 | Step 9001 / 100000 | TPS 4.61358 | ETA 05:28:44
Time 00:31:06 | Step 9051 / 100000 | TPS 4.94276 | ETA 05:06:40
Time 00:31:17 | Step 9101 / 100000 | TPS 4.94065 | ETA 05:06:38
Time 00:31:27 | Step 9151 / 100000 | TPS 4.9399 | ETA 05:06:30
Time 00:31:37 | Step 9201 / 100000 | TPS 4.93503 | ETA 05:06:38
Time 00:31:47 | Step 9251 / 100000 | TPS 4.93577 | ETA 05:06:25
Time 00:31:57 | Step 9301 / 100000 | TPS 4.94122 | ETA 05:05:55
Time 00:32:07 | Step 9351 / 100000 | TPS 4.95276 | ETA 05:05:02
Time 00:32:17 | Step 9401 / 100000 | TPS 4.94174 | ETA 05:05:33
Time 00:32:27 | Step 9451 / 100000 | TPS 4.94261 | ETA 05:05:20
Time 00:32:38 | Step 9501 / 100000 | TPS 4.94639 | ETA 05:04:55
Time 00:32:48 | Step 9551 / 100000 | TPS 4.9456 | ETA 05:04:48
Time 00:32:58 | Step 9601 / 100000 | TPS 4.9313 | ETA 05:05:31
Time 00:33:08 | Step 9651 / 100000 | TPS 4.94825 | ETA 05:04:18
Time 00:33:18 | Step 9701 / 100000 | TPS 4.94601 | ETA 05:04:16
Time 00:33:28 | Step 9751 / 100000 | TPS 4.94923 | ETA 05:03:54
Time 00:33:38 | Step 9800 / 100000 | TPS 4.86452 | ETA 05:09:02
Time 00:33:48 | Step 9850 / 100000 | TPS 4.93987 | ETA 05:04:09
Time 00:33:58 | Step 9900 / 100000 | TPS 4.94778 | ETA 05:03:30
Time 00:34:08 | Step 9949 / 100000 | TPS 4.86779 | ETA 05:08:19
Time 00:34:19 | Step 9999 / 100000 | TPS 4.94986 | ETA 05:03:02
Time 00:34:29 | Step 10046 / 100000 | TPS 4.68736 | ETA 05:19:50
Time 00:34:39 | Step 10095 / 100000 | TPS 4.86157 | ETA 05:08:12
Time 00:34:49 | Step 10145 / 100000 | TPS 4.94616 | ETA 05:02:46
Time 00:34:59 | Step 10195 / 100000 | TPS 4.93774 | ETA 05:03:07
Time 00:35:09 | Step 10245 / 100000 | TPS 4.94595 | ETA 05:02:27
Time 00:35:19 | Step 10295 / 100000 | TPS 4.9469 | ETA 05:02:13
Time 00:35:29 | Step 10345 / 100000 | TPS 4.9371 | ETA 05:02:39
Time 00:35:39 | Step 10395 / 100000 | TPS 4.93232 | ETA 05:02:46
Time 00:35:50 | Step 10445 / 100000 | TPS 4.93273 | ETA 05:02:35
Time 00:36:00 | Step 10495 / 100000 | TPS 4.92982 | ETA 05:02:35
Time 00:36:10 | Step 10545 / 100000 | TPS 4.93491 | ETA 05:02:06
Time 00:36:20 | Step 10595 / 100000 | TPS 4.93693 | ETA 05:01:49
Time 00:36:30 | Step 10645 / 100000 | TPS 4.9393 | ETA 05:01:30
Time 00:36:40 | Step 10695 / 100000 | TPS 4.93444 | ETA 05:01:38
Time 00:36:50 | Step 10745 / 100000 | TPS 4.93759 | ETA 05:01:16
Time 00:37:00 | Step 10795 / 100000 | TPS 4.93709 | ETA 05:01:08
Time 00:37:11 | Step 10845 / 100000 | TPS 4.93978 | ETA 05:00:48
Time 00:37:21 | Step 10895 / 100000 | TPS 4.94171 | ETA 05:00:31
Time 00:37:31 | Step 10945 / 100000 | TPS 4.937 | ETA 05:00:38
Time 00:37:41 | Step 10995 / 100000 | TPS 4.93664 | ETA 05:00:29
Time 00:37:51 | Step 11041 / 100000 | TPS 4.59674 | ETA 05:22:32
Time 00:38:01 | Step 11091 / 100000 | TPS 4.94071 | ETA 04:59:55
Time 00:38:11 | Step 11141 / 100000 | TPS 4.94457 | ETA 04:59:31
Time 00:38:21 | Step 11191 / 100000 | TPS 4.94871 | ETA 04:59:05
Time 00:38:31 | Step 11241 / 100000 | TPS 4.94182 | ETA 04:59:20
Time 00:38:42 | Step 11291 / 100000 | TPS 4.94135 | ETA 04:59:12
Time 00:38:52 | Step 11341 / 100000 | TPS 4.94582 | ETA 04:58:46
Time 00:39:02 | Step 11391 / 100000 | TPS 4.9404 | ETA 04:58:55
Time 00:39:12 | Step 11441 / 100000 | TPS 4.94221 | ETA 04:58:38
Time 00:39:22 | Step 11491 / 100000 | TPS 4.94836 | ETA 04:58:06
Time 00:39:32 | Step 11541 / 100000 | TPS 4.94219 | ETA 04:58:18
Time 00:39:42 | Step 11591 / 100000 | TPS 4.93548 | ETA 04:58:32
Time 00:39:52 | Step 11641 / 100000 | TPS 4.93454 | ETA 04:58:26
Time 00:40:02 | Step 11691 / 100000 | TPS 4.94039 | ETA 04:57:54
Time 00:40:13 | Step 11741 / 100000 | TPS 4.94444 | ETA 04:57:30
Time 00:40:23 | Step 11791 / 100000 | TPS 4.94288 | ETA 04:57:25
Time 00:40:33 | Step 11841 / 100000 | TPS 4.9334 | ETA 04:57:49
Time 00:40:43 | Step 11891 / 100000 | TPS 4.92976 | ETA 04:57:52
Time 00:40:53 | Step 11941 / 100000 | TPS 4.92961 | ETA 04:57:43
Time 00:41:03 | Step 11991 / 100000 | TPS 4.93776 | ETA 04:57:03
Time 00:41:13 | Step 12037 / 100000 | TPS 4.58128 | ETA 05:20:00
Time 00:41:23 | Step 12087 / 100000 | TPS 4.94383 | ETA 04:56:22
Time 00:41:34 | Step 12137 / 100000 | TPS 4.93069 | ETA 04:56:59
Time 00:41:44 | Step 12187 / 100000 | TPS 4.94054 | ETA 04:56:13
Time 00:41:54 | Step 12237 / 100000 | TPS 4.93251 | ETA 04:56:32
Time 00:42:04 | Step 12287 / 100000 | TPS 4.93379 | ETA 04:56:18
Time 00:42:14 | Step 12337 / 100000 | TPS 4.93267 | ETA 04:56:11
Time 00:42:24 | Step 12387 / 100000 | TPS 4.93881 | ETA 04:55:39
Time 00:42:34 | Step 12437 / 100000 | TPS 4.9406 | ETA 04:55:23
Time 00:42:44 | Step 12487 / 100000 | TPS 4.93283 | ETA 04:55:40
Time 00:42:55 | Step 12537 / 100000 | TPS 4.92683 | ETA 04:55:52
Time 00:43:05 | Step 12587 / 100000 | TPS 4.92737 | ETA 04:55:40
Time 00:43:15 | Step 12637 / 100000 | TPS 4.93571 | ETA 04:55:00
Time 00:43:25 | Step 12687 / 100000 | TPS 4.93398 | ETA 04:54:56
Time 00:43:35 | Step 12737 / 100000 | TPS 4.93805 | ETA 04:54:31
Time 00:43:45 | Step 12787 / 100000 | TPS 4.93951 | ETA 04:54:16
Time 00:43:55 | Step 12837 / 100000 | TPS 4.94262 | ETA 04:53:54
Time 00:44:06 | Step 12887 / 100000 | TPS 4.93518 | ETA 04:54:11
Time 00:44:16 | Step 12937 / 100000 | TPS 4.93848 | ETA 04:53:49
Time 00:44:26 | Step 12987 / 100000 | TPS 4.95323 | ETA 04:52:46
Time 00:44:36 | Step 13034 / 100000 | TPS 4.69118 | ETA 05:08:58
Time 00:44:46 | Step 13083 / 100000 | TPS 4.84596 | ETA 04:58:55
Time 00:44:56 | Step 13133 / 100000 | TPS 4.93787 | ETA 04:53:12
Time 00:45:06 | Step 13183 / 100000 | TPS 4.93457 | ETA 04:53:13
Time 00:45:16 | Step 13233 / 100000 | TPS 4.93563 | ETA 04:52:59
Time 00:45:26 | Step 13283 / 100000 | TPS 4.94461 | ETA 04:52:17
Time 00:45:36 | Step 13333 / 100000 | TPS 4.94453 | ETA 04:52:07
Time 00:45:47 | Step 13383 / 100000 | TPS 4.94337 | ETA 04:52:01
Time 00:45:57 | Step 13433 / 100000 | TPS 4.93779 | ETA 04:52:11
Time 00:46:07 | Step 13483 / 100000 | TPS 4.92905 | ETA 04:52:32
Time 00:46:17 | Step 13533 / 100000 | TPS 4.93674 | ETA 04:51:54
Time 00:46:27 | Step 13583 / 100000 | TPS 4.94295 | ETA 04:51:22
Time 00:46:37 | Step 13633 / 100000 | TPS 4.92683 | ETA 04:52:09
Time 00:46:47 | Step 13683 / 100000 | TPS 4.92307 | ETA 04:52:13
Time 00:46:58 | Step 13733 / 100000 | TPS 4.92848 | ETA 04:51:43
Time 00:47:08 | Step 13783 / 100000 | TPS 4.91986 | ETA 04:52:04
Time 00:47:18 | Step 13833 / 100000 | TPS 4.93182 | ETA 04:51:11
Time 00:47:28 | Step 13883 / 100000 | TPS 4.93456 | ETA 04:50:51
Time 00:47:38 | Step 13933 / 100000 | TPS 4.93902 | ETA 04:50:25
Time 00:47:48 | Step 13983 / 100000 | TPS 4.93496 | ETA 04:50:30
Time 00:47:58 | Step 14029 / 100000 | TPS 4.58144 | ETA 05:12:45
Time 00:48:08 | Step 14079 / 100000 | TPS 4.92444 | ETA 04:50:47
Time 00:48:19 | Step 14129 / 100000 | TPS 4.92869 | ETA 04:50:22
Time 00:48:29 | Step 14179 / 100000 | TPS 4.93573 | ETA 04:49:47
Time 00:48:39 | Step 14229 / 100000 | TPS 4.9365 | ETA 04:49:34
Time 00:48:49 | Step 14279 / 100000 | TPS 4.93362 | ETA 04:49:34
Time 00:48:59 | Step 14329 / 100000 | TPS 4.92792 | ETA 04:49:44
Time 00:49:09 | Step 14379 / 100000 | TPS 4.93182 | ETA 04:49:20
Time 00:49:19 | Step 14429 / 100000 | TPS 4.93679 | ETA 04:48:53
Time 00:49:30 | Step 14479 / 100000 | TPS 4.93928 | ETA 04:48:34
Time 00:49:40 | Step 14529 / 100000 | TPS 4.932 | ETA 04:48:49
Time 00:49:50 | Step 14579 / 100000 | TPS 4.92622 | ETA 04:49:00
Time 00:50:00 | Step 14629 / 100000 | TPS 4.93032 | ETA 04:48:35
Time 00:50:10 | Step 14679 / 100000 | TPS 4.93459 | ETA 04:48:10
Time 00:50:20 | Step 14729 / 100000 | TPS 4.93904 | ETA 04:47:44
Time 00:50:30 | Step 14779 / 100000 | TPS 4.94086 | ETA 04:47:28
Time 00:50:40 | Step 14829 / 100000 | TPS 4.94468 | ETA 04:47:04
Time 00:50:51 | Step 14879 / 100000 | TPS 4.93554 | ETA 04:47:26
Time 00:51:01 | Step 14929 / 100000 | TPS 4.94173 | ETA 04:46:54
Time 00:51:11 | Step 14979 / 100000 | TPS 4.93481 | ETA 04:47:08
Time 00:51:21 | Step 15023 / 100000 | TPS 4.2698 | ETA 05:31:41
Time 00:51:31 | Step 15073 / 100000 | TPS 4.94899 | ETA 04:46:00
Time 00:51:41 | Step 15123 / 100000 | TPS 4.93991 | ETA 04:46:21
Time 00:51:51 | Step 15173 / 100000 | TPS 4.94098 | ETA 04:46:08
Time 00:52:02 | Step 15223 / 100000 | TPS 4.93984 | ETA 04:46:01
Time 00:52:12 | Step 15273 / 100000 | TPS 4.93482 | ETA 04:46:09
Time 00:52:22 | Step 15323 / 100000 | TPS 4.93846 | ETA 04:45:46
Time 00:52:32 | Step 15373 / 100000 | TPS 4.94579 | ETA 04:45:10
Time 00:52:42 | Step 15423 / 100000 | TPS 4.94834 | ETA 04:44:51
Time 00:52:52 | Step 15473 / 100000 | TPS 4.94063 | ETA 04:45:08
Time 00:53:02 | Step 15523 / 100000 | TPS 4.93787 | ETA 04:45:07
Time 00:53:12 | Step 15573 / 100000 | TPS 4.94008 | ETA 04:44:50
Time 00:53:23 | Step 15623 / 100000 | TPS 4.93318 | ETA 04:45:03
Time 00:53:33 | Step 15673 / 100000 | TPS 4.94526 | ETA 04:44:12
Time 00:53:43 | Step 15723 / 100000 | TPS 4.93556 | ETA 04:44:35
Time 00:53:53 | Step 15773 / 100000 | TPS 4.92854 | ETA 04:44:49
Time 00:54:03 | Step 15823 / 100000 | TPS 4.93204 | ETA 04:44:27
Time 00:54:13 | Step 15873 / 100000 | TPS 4.94165 | ETA 04:43:44
Time 00:54:23 | Step 15923 / 100000 | TPS 4.93203 | ETA 04:44:07
Time 00:54:33 | Step 15973 / 100000 | TPS 4.9371 | ETA 04:43:39
Time 00:54:43 | Step 16019 / 100000 | TPS 4.59505 | ETA 05:04:36
Time 00:54:54 | Step 16069 / 100000 | TPS 4.93652 | ETA 04:43:22
Time 00:55:04 | Step 16119 / 100000 | TPS 4.94455 | ETA 04:42:44
Time 00:55:14 | Step 16169 / 100000 | TPS 4.93775 | ETA 04:42:57
Time 00:55:24 | Step 16219 / 100000 | TPS 4.93433 | ETA 04:42:59
Time 00:55:34 | Step 16269 / 100000 | TPS 4.94267 | ETA 04:42:20
Time 00:55:44 | Step 16319 / 100000 | TPS 4.93413 | ETA 04:42:39
Time 00:55:54 | Step 16369 / 100000 | TPS 4.93332 | ETA 04:42:32
Time 00:56:05 | Step 16419 / 100000 | TPS 4.93103 | ETA 04:42:30
Time 00:56:15 | Step 16469 / 100000 | TPS 4.93135 | ETA 04:42:18
Time 00:56:25 | Step 16519 / 100000 | TPS 4.93499 | ETA 04:41:56
Time 00:56:35 | Step 16569 / 100000 | TPS 4.94239 | ETA 04:41:20
Time 00:56:45 | Step 16619 / 100000 | TPS 4.93928 | ETA 04:41:21
Time 00:56:55 | Step 16669 / 100000 | TPS 4.94516 | ETA 04:40:51
Time 00:57:05 | Step 16719 / 100000 | TPS 4.94382 | ETA 04:40:45
Time 00:57:15 | Step 16769 / 100000 | TPS 4.93362 | ETA 04:41:10
Time 00:57:26 | Step 16819 / 100000 | TPS 4.92912 | ETA 04:41:15
Time 00:57:36 | Step 16869 / 100000 | TPS 4.94037 | ETA 04:40:26
Time 00:57:46 | Step 16919 / 100000 | TPS 4.94804 | ETA 04:39:50
Time 00:57:56 | Step 16969 / 100000 | TPS 4.9307 | ETA 04:40:39
Time 00:58:06 | Step 17015 / 100000 | TPS 4.57895 | ETA 05:02:03
Time 00:58:16 | Step 17065 / 100000 | TPS 4.93877 | ETA 04:39:52
Time 00:58:26 | Step 17115 / 100000 | TPS 4.93086 | ETA 04:40:09
Time 00:58:36 | Step 17165 / 100000 | TPS 4.94566 | ETA 04:39:09
Time 00:58:46 | Step 17215 / 100000 | TPS 4.94521 | ETA 04:39:00
Time 00:58:57 | Step 17265 / 100000 | TPS 4.9357 | ETA 04:39:22
Time 00:59:07 | Step 17315 / 100000 | TPS 4.93034 | ETA 04:39:30
Time 00:59:17 | Step 17365 / 100000 | TPS 4.92378 | ETA 04:39:42
Time 00:59:27 | Step 17415 / 100000 | TPS 4.92804 | ETA 04:39:18
Time 00:59:37 | Step 17465 / 100000 | TPS 4.9369 | ETA 04:38:37
Time 00:59:47 | Step 17515 / 100000 | TPS 4.94904 | ETA 04:37:46
Time 00:59:57 | Step 17565 / 100000 | TPS 4.93465 | ETA 04:38:25
Time 01:00:07 | Step 17615 / 100000 | TPS 4.9269 | ETA 04:38:41
Time 01:00:18 | Step 17665 / 100000 | TPS 4.92771 | ETA 04:38:28
Time 01:00:28 | Step 17715 / 100000 | TPS 4.92637 | ETA 04:38:22
Time 01:00:38 | Step 17765 / 100000 | TPS 4.94122 | ETA 04:37:22
Time 01:00:48 | Step 17815 / 100000 | TPS 4.94473 | ETA 04:37:00
Time 01:00:58 | Step 17865 / 100000 | TPS 4.93713 | ETA 04:37:16
Time 01:01:08 | Step 17915 / 100000 | TPS 4.93983 | ETA 04:36:56
Time 01:01:18 | Step 17965 / 100000 | TPS 4.93471 | ETA 04:37:04
Time 01:01:28 | Step 18011 / 100000 | TPS 4.57897 | ETA 04:58:25
Time 01:01:39 | Step 18061 / 100000 | TPS 4.93723 | ETA 04:36:36
Time 01:01:49 | Step 18111 / 100000 | TPS 4.93998 | ETA 04:36:16
Time 01:01:59 | Step 18161 / 100000 | TPS 4.92774 | ETA 04:36:47
Time 01:02:09 | Step 18211 / 100000 | TPS 4.9304 | ETA 04:36:28
Time 01:02:19 | Step 18261 / 100000 | TPS 4.92734 | ETA 04:36:28
Time 01:02:29 | Step 18311 / 100000 | TPS 4.9322 | ETA 04:36:02
Time 01:02:39 | Step 18361 / 100000 | TPS 4.93777 | ETA 04:35:33
Time 01:02:50 | Step 18411 / 100000 | TPS 4.93212 | ETA 04:35:42
Time 01:03:00 | Step 18461 / 100000 | TPS 4.93401 | ETA 04:35:25
Time 01:03:10 | Step 18511 / 100000 | TPS 4.93208 | ETA 04:35:22
Time 01:03:20 | Step 18561 / 100000 | TPS 4.93446 | ETA 04:35:04
Time 01:03:30 | Step 18611 / 100000 | TPS 4.92961 | ETA 04:35:10
Time 01:03:40 | Step 18661 / 100000 | TPS 4.94183 | ETA 04:34:19
Time 01:03:50 | Step 18711 / 100000 | TPS 4.93184 | ETA 04:34:42
Time 01:04:00 | Step 18761 / 100000 | TPS 4.93814 | ETA 04:34:11
Time 01:04:11 | Step 18811 / 100000 | TPS 4.93264 | ETA 04:34:19
Time 01:04:21 | Step 18861 / 100000 | TPS 4.92698 | ETA 04:34:28
Time 01:04:31 | Step 18911 / 100000 | TPS 4.9203 | ETA 04:34:40
Time 01:04:41 | Step 18961 / 100000 | TPS 4.94304 | ETA 04:33:14
Time 01:04:51 | Step 19007 / 100000 | TPS 4.59803 | ETA 04:53:34
Time 01:05:01 | Step 19057 / 100000 | TPS 4.93513 | ETA 04:33:21
Time 01:05:11 | Step 19107 / 100000 | TPS 4.9292 | ETA 04:33:30
Time 01:05:21 | Step 19157 / 100000 | TPS 4.93273 | ETA 04:33:09
Time 01:05:32 | Step 19207 / 100000 | TPS 4.91396 | ETA 04:34:01
Time 01:05:42 | Step 19257 / 100000 | TPS 4.93312 | ETA 04:32:47
Time 01:05:52 | Step 19307 / 100000 | TPS 4.93187 | ETA 04:32:41
Time 01:06:02 | Step 19356 / 100000 | TPS 4.84683 | ETA 04:37:18
Time 01:06:12 | Step 19406 / 100000 | TPS 4.93542 | ETA 04:32:09
Time 01:06:22 | Step 19456 / 100000 | TPS 4.92574 | ETA 04:32:31
Time 01:06:32 | Step 19505 / 100000 | TPS 4.83753 | ETA 04:37:19
Time 01:06:43 | Step 19555 / 100000 | TPS 4.94311 | ETA 04:31:14
Time 01:06:53 | Step 19605 / 100000 | TPS 4.93432 | ETA 04:31:33
Time 01:07:03 | Step 19655 / 100000 | TPS 4.93637 | ETA 04:31:16
Time 01:07:13 | Step 19705 / 100000 | TPS 4.93121 | ETA 04:31:23
Time 01:07:23 | Step 19755 / 100000 | TPS 4.93242 | ETA 04:31:08
Time 01:07:33 | Step 19805 / 100000 | TPS 4.92333 | ETA 04:31:28
Time 01:07:43 | Step 19855 / 100000 | TPS 4.94085 | ETA 04:30:20
Time 01:07:53 | Step 19905 / 100000 | TPS 4.93549 | ETA 04:30:28
Time 01:08:04 | Step 19955 / 100000 | TPS 4.93484 | ETA 04:30:20
Time 01:08:14 | Step 20001 / 100000 | TPS 4.5824 | ETA 04:50:57
Time 01:08:24 | Step 20051 / 100000 | TPS 4.93654 | ETA 04:29:55
Time 01:08:34 | Step 20101 / 100000 | TPS 4.92379 | ETA 04:30:27
Time 01:08:44 | Step 20151 / 100000 | TPS 4.94509 | ETA 04:29:07
Time 01:08:54 | Step 20201 / 100000 | TPS 4.93462 | ETA 04:29:31
Time 01:09:04 | Step 20251 / 100000 | TPS 4.93573 | ETA 04:29:17
Time 01:09:14 | Step 20301 / 100000 | TPS 4.92987 | ETA 04:29:26
Time 01:09:25 | Step 20349 / 100000 | TPS 4.75105 | ETA 04:39:24
Time 01:09:35 | Step 20389 / 100000 | TPS 3.9844 | ETA 05:33:00
Time 01:09:45 | Step 20439 / 100000 | TPS 4.88955 | ETA 04:31:11
Time 01:09:55 | Step 20489 / 100000 | TPS 4.93904 | ETA 04:28:18
Time 01:10:05 | Step 20539 / 100000 | TPS 4.9363 | ETA 04:28:17
Time 01:10:15 | Step 20589 / 100000 | TPS 4.92951 | ETA 04:28:29
Time 01:10:25 | Step 20639 / 100000 | TPS 4.92681 | ETA 04:28:27
Time 01:10:36 | Step 20689 / 100000 | TPS 4.92673 | ETA 04:28:18
Time 01:10:46 | Step 20739 / 100000 | TPS 4.93395 | ETA 04:27:44
Time 01:10:56 | Step 20789 / 100000 | TPS 4.93591 | ETA 04:27:27
Time 01:11:06 | Step 20839 / 100000 | TPS 4.92902 | ETA 04:27:40
Time 01:11:16 | Step 20889 / 100000 | TPS 4.92449 | ETA 04:27:44
Time 01:11:26 | Step 20939 / 100000 | TPS 4.93074 | ETA 04:27:14
Time 01:11:36 | Step 20989 / 100000 | TPS 4.91859 | ETA 04:27:43
Time 01:11:46 | Step 21035 / 100000 | TPS 4.5834 | ETA 04:47:08
Time 01:11:57 | Step 21085 / 100000 | TPS 4.93873 | ETA 04:26:18
Time 01:12:07 | Step 21135 / 100000 | TPS 4.9252 | ETA 04:26:52
Time 01:12:17 | Step 21185 / 100000 | TPS 4.92253 | ETA 04:26:51
Time 01:12:27 | Step 21235 / 100000 | TPS 4.92308 | ETA 04:26:39
Time 01:12:37 | Step 21285 / 100000 | TPS 4.9213 | ETA 04:26:34
Time 01:12:47 | Step 21335 / 100000 | TPS 4.92634 | ETA 04:26:08
Time 01:12:57 | Step 21385 / 100000 | TPS 4.93361 | ETA 04:25:34
Time 01:13:08 | Step 21435 / 100000 | TPS 4.93802 | ETA 04:25:10
Time 01:13:18 | Step 21485 / 100000 | TPS 4.9392 | ETA 04:24:56
Time 01:13:28 | Step 21535 / 100000 | TPS 4.93492 | ETA 04:24:59
Time 01:13:38 | Step 21585 / 100000 | TPS 4.93367 | ETA 04:24:53
Time 01:13:48 | Step 21635 / 100000 | TPS 4.93809 | ETA 04:24:29
Time 01:13:58 | Step 21685 / 100000 | TPS 4.94012 | ETA 04:24:12
Time 01:14:08 | Step 21735 / 100000 | TPS 4.9331 | ETA 04:24:25
Time 01:14:18 | Step 21785 / 100000 | TPS 4.9378 | ETA 04:24:00
Time 01:14:29 | Step 21835 / 100000 | TPS 4.93086 | ETA 04:24:12
Time 01:14:39 | Step 21885 / 100000 | TPS 4.92371 | ETA 04:24:25
Time 01:14:49 | Step 21935 / 100000 | TPS 4.93654 | ETA 04:23:33
Time 01:14:59 | Step 21985 / 100000 | TPS 4.93222 | ETA 04:23:37
Time 01:15:09 | Step 22031 / 100000 | TPS 4.58945 | ETA 04:43:08
Time 01:15:19 | Step 22081 / 100000 | TPS 4.93846 | ETA 04:22:58
Time 01:15:29 | Step 22131 / 100000 | TPS 4.9315 | ETA 04:23:10
Time 01:15:39 | Step 22181 / 100000 | TPS 4.92174 | ETA 04:23:31
Time 01:15:50 | Step 22231 / 100000 | TPS 4.93017 | ETA 04:22:54
Time 01:16:00 | Step 22281 / 100000 | TPS 4.93483 | ETA 04:22:29
Time 01:16:10 | Step 22331 / 100000 | TPS 4.92575 | ETA 04:22:47
Time 01:16:20 | Step 22381 / 100000 | TPS 4.92239 | ETA 04:22:48
Time 01:16:30 | Step 22431 / 100000 | TPS 4.91761 | ETA 04:22:53
Time 01:16:40 | Step 22481 / 100000 | TPS 4.92132 | ETA 04:22:31
Time 01:16:51 | Step 22531 / 100000 | TPS 4.92165 | ETA 04:22:20
Time 01:17:01 | Step 22581 / 100000 | TPS 4.93752 | ETA 04:21:19
Time 01:17:11 | Step 22631 / 100000 | TPS 4.92819 | ETA 04:21:39
Time 01:17:21 | Step 22681 / 100000 | TPS 4.92507 | ETA 04:21:39
Time 01:17:31 | Step 22731 / 100000 | TPS 4.92771 | ETA 04:21:20
Time 01:17:41 | Step 22781 / 100000 | TPS 4.92121 | ETA 04:21:31
Time 01:17:51 | Step 22826 / 100000 | TPS 4.49167 | ETA 04:46:21
Time 01:18:01 | Step 22865 / 100000 | TPS 3.82572 | ETA 05:36:02
Time 01:18:12 | Step 22902 / 100000 | TPS 3.64681 | ETA 05:52:21
Time 01:18:22 | Step 22937 / 100000 | TPS 3.47479 | ETA 06:09:37
Time 01:18:32 | Step 22965 / 100000 | TPS 2.73645 | ETA 07:49:11
Time 01:18:42 | Step 22993 / 100000 | TPS 2.73492 | ETA 07:49:16
Traceback (most recent call last):
  File "Equilibrium_T_5_6.py", line 108, in <module>
    hoomd.run(steps)
  File "/usr/local/lib/python3.5/dist-packages/hoomd/__init__.py", line 194, in run
    context.current.system.run(int(tsteps), callback_period, callback, limit_hours, int(limit_multiple));
RuntimeError: Error updating neighborlist
