[33mWARNING: Skipping user bind, non existent bind point (file) in container: '/usr/bin/nvidia-smi'
[0m[33mWARNING: Skipping user bind, non existent bind point (file) in container: '/usr/bin/nvidia-debugdump'
[0m[33mWARNING: Skipping user bind, non existent bind point (file) in container: '/usr/bin/nvidia-persistenced'
[0m[33mWARNING: Skipping user bind, non existent bind point (file) in container: '/usr/bin/nvidia-cuda-mps-control'
[0m[33mWARNING: Skipping user bind, non existent bind point (file) in container: '/usr/bin/nvidia-cuda-mps-server'
[0mHOOMD-blue 2.3.5 CUDA (8.0) DOUBLE HPMC_MIXED TBB SSE SSE2 
Compiled: 10/08/18
Copyright 2009-2018 The Regents of the University of Michigan.
-----
You are using HOOMD-blue. Please cite the following:
* J A Anderson, C D Lorenz, and A Travesset. "General purpose molecular dynamics
  simulations fully implemented on graphics processing units", Journal of
  Computational Physics 227 (2008) 5342--5359
* J Glaser, T D Nguyen, J A Anderson, P Liu, F Spiga, J A Millan, D C Morse, and
  S C Glotzer. "Strong scaling of general-purpose molecular dynamics simulations
  on GPUs", Computer Physics Communications 192 (2015) 97--107
-----
notice(2): This system is not compute exclusive, using local rank to select GPUs
HOOMD-blue is running on the following GPU(s):
 [0]            Tesla K20m  13 SM_3.5 @ 0.706 GHz, 4742 MiB DRAM
Equilibrium_T_7_0.py:027  |  system = hoomd.init.read_gsd("T_CM_7.0_P_1.4_ramp.gsd",frame = -1)
notice(2): Group "all" created containing 1000 particles
Equilibrium_T_7_0.py:031  |  rigid = hoomd.md.constrain.rigid();
notice(2): constrain.rigid(): Creating 1000 rigid bodies (adding 8000 particles)
Equilibrium_T_7_0.py:043  |  nl = hoomd.md.nlist.tree();
-----
You are using tree neighbor lists. Please cite the following:
* M P Howard, J A Anderson, A Nikoubashman, S C Glotzer, and A Z
  Panagiotopoulos. "Efficient neighbor list calculation for molecular simulation
  of colloidal systems using graphics processing units", Computer Physics
  Communications 203 (2016) 45--52
-----
Equilibrium_T_7_0.py:045  |  lj = hoomd.md.pair.lj(r_cut = 3.5, nlist = nl)
Equilibrium_T_7_0.py:046  |  lj.set_params(mode = 'shift')
Equilibrium_T_7_0.py:050  |  lj.pair_coeff.set('M','M', epsilon = 1.0, sigma = 1.0)
Equilibrium_T_7_0.py:051  |  lj.pair_coeff.set('A','A', epsilon = 1.0, sigma = 1.0)
Equilibrium_T_7_0.py:052  |  lj.pair_coeff.set('M','A', epsilon = 1.0, sigma = 1.0)
Equilibrium_T_7_0.py:056  |  hoomd.md.integrate.mode_standard(dt = 0.005);
Equilibrium_T_7_0.py:060  |  mesogens = hoomd.group.rigid_center();
notice(2): Group "rigid_center" created containing 1000 particles
Equilibrium_T_7_0.py:068  |  npt = hoomd.md.integrate.npt(group = mesogens, kT = t_max, tau = 2.0, tauP = 2.0, P = p_max);
Equilibrium_T_7_0.py:077  |  log = hoomd.analyze.log(filename = log_file,
                         quantities = ['num_particles',
                                     'ndof',
                                     'translational_ndof',
                                     'rotational_ndof',
                                     'potential_energy',
                                     'kinetic_energy',
                                     'translational_kinetic_energy',
                                     'rotational_kinetic_energy',
                                     'temperature',
                                     'pressure',
                                      'volume'],
                         period = 1e3,
                         overwrite = True);
Equilibrium_T_7_0.py:093  |                 group = hoomd.group.all(),
Equilibrium_T_7_0.py:091  |  gsd = hoomd.dump.gsd(gsd_file,
               period = 1e3,
               group = hoomd.group.all(),
               overwrite = True); 
Equilibrium_T_7_0.py:095  |  meso_gsd = hoomd.dump.gsd(meso_gsd_file,
               period = 1e3,
               group = mesogens,
               overwrite = True); 
Equilibrium_T_7_0.py:106  |  hoomd.run(steps)
notice(2): -- Neighborlist exclusion statistics -- :
notice(2): Particles with 0 exclusions             : 9000
notice(2): Neighbors included by diameter          : no
notice(2): Neighbors excluded when in the same body: yes
** starting run **
Time 00:00:10 | Step 1746461 / 1944000 | TPS 245.921 | ETA 00:13:23
Time 00:00:20 | Step 1749176 / 1944000 | TPS 271.414 | ETA 00:11:57
Time 00:00:30 | Step 1751911 / 1944000 | TPS 273.492 | ETA 00:11:42
Time 00:00:40 | Step 1754637 / 1944000 | TPS 272.533 | ETA 00:11:34
Time 00:00:50 | Step 1757367 / 1944000 | TPS 272.945 | ETA 00:11:23
Time 00:01:00 | Step 1760031 / 1944000 | TPS 266.355 | ETA 00:11:30
Time 00:01:10 | Step 1762731 / 1944000 | TPS 269.861 | ETA 00:11:11
Time 00:01:20 | Step 1765434 / 1944000 | TPS 270.119 | ETA 00:11:01
Time 00:01:30 | Step 1768141 / 1944000 | TPS 270.659 | ETA 00:10:49
Time 00:01:40 | Step 1770873 / 1944000 | TPS 273.15 | ETA 00:10:33
Time 00:01:50 | Step 1773583 / 1944000 | TPS 270.817 | ETA 00:10:29
Time 00:02:00 | Step 1776343 / 1944000 | TPS 275.945 | ETA 00:10:07
Time 00:02:10 | Step 1779085 / 1944000 | TPS 274.18 | ETA 00:10:01
Time 00:02:20 | Step 1781814 / 1944000 | TPS 272.846 | ETA 00:09:54
Time 00:02:30 | Step 1784593 / 1944000 | TPS 277.8 | ETA 00:09:33
Time 00:02:40 | Step 1787333 / 1944000 | TPS 273.996 | ETA 00:09:31
Time 00:02:50 | Step 1790052 / 1944000 | TPS 271.877 | ETA 00:09:26
Time 00:03:00 | Step 1792800 / 1944000 | TPS 274.795 | ETA 00:09:10
Time 00:03:10 | Step 1795483 / 1944000 | TPS 268.141 | ETA 00:09:13
Time 00:03:20 | Step 1798234 / 1944000 | TPS 274.922 | ETA 00:08:50
Time 00:03:30 | Step 1800959 / 1944000 | TPS 272.356 | ETA 00:08:45
Time 00:03:40 | Step 1803661 / 1944000 | TPS 270.053 | ETA 00:08:39
Time 00:03:50 | Step 1806433 / 1944000 | TPS 277.125 | ETA 00:08:16
Time 00:04:00 | Step 1809173 / 1944000 | TPS 273.918 | ETA 00:08:12
Time 00:04:10 | Step 1811979 / 1944000 | TPS 280.593 | ETA 00:07:50
Time 00:04:20 | Step 1818337 / 1944000 | TPS 635.785 | ETA 00:03:17
Time 00:04:30 | Step 1824901 / 1944000 | TPS 650.716 | ETA 00:03:03
Time 00:04:40 | Step 1831501 / 1944000 | TPS 652.815 | ETA 00:02:52
Time 00:04:50 | Step 1838101 / 1944000 | TPS 652.848 | ETA 00:02:42
Time 00:05:00 | Step 1844701 / 1944000 | TPS 652.401 | ETA 00:02:32
Time 00:05:10 | Step 1851301 / 1944000 | TPS 651.549 | ETA 00:02:22
Time 00:05:20 | Step 1857901 / 1944000 | TPS 653.218 | ETA 00:02:11
Time 00:05:31 | Step 1864501 / 1944000 | TPS 652.8 | ETA 00:02:01
Time 00:05:41 | Step 1871101 / 1944000 | TPS 652.909 | ETA 00:01:51
Time 00:05:51 | Step 1877701 / 1944000 | TPS 653.397 | ETA 00:01:41
Time 00:06:01 | Step 1884301 / 1944000 | TPS 652.794 | ETA 00:01:31
Time 00:06:11 | Step 1890901 / 1944000 | TPS 653.091 | ETA 00:01:21
Time 00:06:21 | Step 1897501 / 1944000 | TPS 652.822 | ETA 00:01:11
Time 00:06:31 | Step 1904101 / 1944000 | TPS 652.926 | ETA 00:01:01
Time 00:06:41 | Step 1910701 / 1944000 | TPS 653.298 | ETA 00:00:50
Time 00:06:51 | Step 1917301 / 1944000 | TPS 652.752 | ETA 00:00:40
Time 00:07:01 | Step 1923901 / 1944000 | TPS 653.302 | ETA 00:00:30
Time 00:07:12 | Step 1930501 / 1944000 | TPS 652.883 | ETA 00:00:20
Time 00:07:22 | Step 1937101 / 1944000 | TPS 652.642 | ETA 00:00:10
Time 00:07:32 | Step 1943701 / 1944000 | TPS 653.348 | ETA 00:00:00
Time 00:07:32 | Step 1944000 / 1944000 | TPS 2117.77 | ETA 00:00:00
Average TPS: 442.214
---------
-- Neighborlist stats:
31510 normal updates / 667 forced updates / 0 dangerous updates
n_neigh_min: 0 / n_neigh_max: 0 / n_neigh_avg: 0
shortest rebuild period: 1
** run complete **
