[33mWARNING: Skipping user bind, non existent bind point (file) in container: '/usr/bin/nvidia-smi'
[0m[33mWARNING: Skipping user bind, non existent bind point (file) in container: '/usr/bin/nvidia-debugdump'
[0m[33mWARNING: Skipping user bind, non existent bind point (file) in container: '/usr/bin/nvidia-persistenced'
[0m[33mWARNING: Skipping user bind, non existent bind point (file) in container: '/usr/bin/nvidia-cuda-mps-control'
[0m[33mWARNING: Skipping user bind, non existent bind point (file) in container: '/usr/bin/nvidia-cuda-mps-server'
[0mHOOMD-blue 2.3.5 CUDA (8.0) DOUBLE HPMC_MIXED TBB SSE SSE2 
Compiled: 10/08/18
Copyright 2009-2018 The Regents of the University of Michigan.
-----
You are using HOOMD-blue. Please cite the following:
* J A Anderson, C D Lorenz, and A Travesset. "General purpose molecular dynamics
  simulations fully implemented on graphics processing units", Journal of
  Computational Physics 227 (2008) 5342--5359
* J Glaser, T D Nguyen, J A Anderson, P Liu, F Spiga, J A Millan, D C Morse, and
  S C Glotzer. "Strong scaling of general-purpose molecular dynamics simulations
  on GPUs", Computer Physics Communications 192 (2015) 97--107
-----
notice(2): This system is not compute exclusive, using local rank to select GPUs
HOOMD-blue is running on the following GPU(s):
 [0]            Tesla K20m  13 SM_3.5 @ 0.706 GHz, 4743 MiB DRAM
Ramp_5_2.py:030  |  system = hoomd.init.read_gsd("T_CM&NP_5.0_P_2.8_ramp.gsd", frame = -1);
notice(2): Group "all" created containing 1004 particles
Ramp_5_2.py:034  |  rigid = hoomd.md.constrain.rigid();
notice(2): constrain.rigid(): Creating 1000 rigid bodies (adding 8000 particles)
Ramp_5_2.py:046  |  nl = hoomd.md.nlist.tree();
-----
You are using tree neighbor lists. Please cite the following:
* M P Howard, J A Anderson, A Nikoubashman, S C Glotzer, and A Z
  Panagiotopoulos. "Efficient neighbor list calculation for molecular simulation
  of colloidal systems using graphics processing units", Computer Physics
  Communications 203 (2016) 45--52
-----
Ramp_5_2.py:048  |  lj = hoomd.md.pair.lj(r_cut = 3.5, nlist = nl)
Ramp_5_2.py:049  |  lj.set_params(mode = 'shift')
Ramp_5_2.py:053  |  lj.pair_coeff.set('NP','NP', epsilon = 1.0, sigma = 5.0);
Ramp_5_2.py:054  |  lj.pair_coeff.set('M' ,'M' , epsilon = 1.0, sigma = 1.0);
Ramp_5_2.py:055  |  lj.pair_coeff.set('A' ,'A' , epsilon = 1.0, sigma = 1.0);
Ramp_5_2.py:056  |  lj.pair_coeff.set('M' ,'A' , epsilon = 1.0, sigma = 1.0);
Ramp_5_2.py:057  |  lj.pair_coeff.set('NP','M' , epsilon = 1.0, sigma = 3.0);
Ramp_5_2.py:058  |  lj.pair_coeff.set('NP','A' , epsilon = 1.0, sigma = 3.0);
Ramp_5_2.py:062  |  hoomd.md.integrate.mode_standard(dt = 0.005);
Ramp_5_2.py:066  |  nanoparticles = hoomd.group.type(name = 'Nano_Particles', type = 'NP');
notice(2): Group "Nano_Particles" created containing 4 particles
Ramp_5_2.py:067  |  mesogens = hoomd.group.rigid_center();
notice(2): Group "rigid_center" created containing 1000 particles
notice(2): Group "NP_Mes" created containing 1004 particles
Ramp_5_2.py:074  |  npt = hoomd.md.integrate.npt(group = groupNP_mes, kT = temp, tau = 2.0, tauP = 3.0, P = p_max);
Ramp_5_2.py:083  |  log = hoomd.analyze.log(filename = log_file,
                         quantities = ['num_particles',
                                     'ndof',
                                     'translational_ndof',
                                     'rotational_ndof',
                                     'potential_energy',
                                     'kinetic_energy',
                                     'translational_kinetic_energy',
                                     'rotational_kinetic_energy',
                                     'temperature',
                                     'pressure',
                                      'volume'],
                         period = 1e3,
                         overwrite = True);
Ramp_5_2.py:099  |                 group = hoomd.group.all(),
Ramp_5_2.py:097  |  gsd = hoomd.dump.gsd(gsd_file,
               period = 1e3,
               group = hoomd.group.all(),
               overwrite = True); 
Ramp_5_2.py:101  |  meso_gsd = hoomd.dump.gsd(meso_gsd_file,
               period = 1e3,
               group = groupNP_mes,
               overwrite = True); 
Ramp_5_2.py:112  |  hoomd.run(steps_ramp)
notice(2): -- Neighborlist exclusion statistics -- :
notice(2): Particles with 0 exclusions             : 9004
notice(2): Neighbors included by diameter          : no
notice(2): Neighbors excluded when in the same body: yes
** starting run **
Time 00:00:10 | Step 708131 / 756000 | TPS 212.894 | ETA 00:03:44
Time 00:00:20 | Step 710532 / 756000 | TPS 239.86 | ETA 00:03:09
Time 00:00:30 | Step 712913 / 756000 | TPS 238.095 | ETA 00:03:00
Time 00:00:40 | Step 715274 / 756000 | TPS 235.891 | ETA 00:02:52
Time 00:00:50 | Step 717668 / 756000 | TPS 239.225 | ETA 00:02:40
Time 00:01:00 | Step 720025 / 756000 | TPS 235.697 | ETA 00:02:32
Time 00:01:10 | Step 722371 / 756000 | TPS 234.534 | ETA 00:02:23
Time 00:01:20 | Step 724710 / 756000 | TPS 233.74 | ETA 00:02:13
Time 00:01:30 | Step 727072 / 756000 | TPS 236.044 | ETA 00:02:02
Time 00:01:40 | Step 729440 / 756000 | TPS 236.623 | ETA 00:01:52
Time 00:01:50 | Step 731821 / 756000 | TPS 238.085 | ETA 00:01:41
Time 00:02:00 | Step 734192 / 756000 | TPS 237.08 | ETA 00:01:31
Time 00:02:10 | Step 736550 / 756000 | TPS 235.783 | ETA 00:01:22
Time 00:02:20 | Step 738916 / 756000 | TPS 236.542 | ETA 00:01:12
Time 00:02:30 | Step 741312 / 756000 | TPS 239.514 | ETA 00:01:01
Time 00:02:40 | Step 743706 / 756000 | TPS 239.389 | ETA 00:00:51
Time 00:02:50 | Step 746094 / 756000 | TPS 238.729 | ETA 00:00:41
Time 00:03:00 | Step 748453 / 756000 | TPS 235.741 | ETA 00:00:32
Time 00:03:10 | Step 750808 / 756000 | TPS 235.4 | ETA 00:00:22
Time 00:03:20 | Step 753173 / 756000 | TPS 236.343 | ETA 00:00:11
Time 00:03:30 | Step 755555 / 756000 | TPS 238.075 | ETA 00:00:01
Time 00:03:32 | Step 756000 / 756000 | TPS 238.003 | ETA 00:00:00
Average TPS: 235.889
---------
-- Neighborlist stats:
17350 normal updates / 167 forced updates / 0 dangerous updates
n_neigh_min: 76 / n_neigh_max: 252 / n_neigh_avg: 216.655
shortest rebuild period: 2
** run complete **
[33mWARNING: Skipping user bind, non existent bind point (file) in container: '/usr/bin/nvidia-smi'
[0m[33mWARNING: Skipping user bind, non existent bind point (file) in container: '/usr/bin/nvidia-debugdump'
[0m[33mWARNING: Skipping user bind, non existent bind point (file) in container: '/usr/bin/nvidia-persistenced'
[0m[33mWARNING: Skipping user bind, non existent bind point (file) in container: '/usr/bin/nvidia-cuda-mps-control'
[0m[33mWARNING: Skipping user bind, non existent bind point (file) in container: '/usr/bin/nvidia-cuda-mps-server'
[0mHOOMD-blue 2.3.5 CUDA (8.0) DOUBLE HPMC_MIXED TBB SSE SSE2 
Compiled: 10/08/18
Copyright 2009-2018 The Regents of the University of Michigan.
-----
You are using HOOMD-blue. Please cite the following:
* J A Anderson, C D Lorenz, and A Travesset. "General purpose molecular dynamics
  simulations fully implemented on graphics processing units", Journal of
  Computational Physics 227 (2008) 5342--5359
* J Glaser, T D Nguyen, J A Anderson, P Liu, F Spiga, J A Millan, D C Morse, and
  S C Glotzer. "Strong scaling of general-purpose molecular dynamics simulations
  on GPUs", Computer Physics Communications 192 (2015) 97--107
-----
notice(2): This system is not compute exclusive, using local rank to select GPUs
HOOMD-blue is running on the following GPU(s):
 [0]            Tesla K20m  13 SM_3.5 @ 0.706 GHz, 4743 MiB DRAM
Ramp_5_4.py:044  |  system = hoomd.init.read_gsd(ramp_file, frame = -1);
notice(2): Group "all" created containing 1004 particles
Ramp_5_4.py:048  |  rigid = hoomd.md.constrain.rigid();
notice(2): constrain.rigid(): Creating 1000 rigid bodies (adding 8000 particles)
Ramp_5_4.py:060  |  nl = hoomd.md.nlist.tree();
-----
You are using tree neighbor lists. Please cite the following:
* M P Howard, J A Anderson, A Nikoubashman, S C Glotzer, and A Z
  Panagiotopoulos. "Efficient neighbor list calculation for molecular simulation
  of colloidal systems using graphics processing units", Computer Physics
  Communications 203 (2016) 45--52
-----
Ramp_5_4.py:062  |  lj = hoomd.md.pair.lj(r_cut = 3.5, nlist = nl)
Ramp_5_4.py:063  |  lj.set_params(mode = 'shift')
Ramp_5_4.py:067  |  lj.pair_coeff.set('NP','NP', epsilon = 1.0, sigma = 5.0);
Ramp_5_4.py:068  |  lj.pair_coeff.set('M' ,'M' , epsilon = 1.0, sigma = 1.0);
Ramp_5_4.py:069  |  lj.pair_coeff.set('A' ,'A' , epsilon = 1.0, sigma = 1.0);
Ramp_5_4.py:070  |  lj.pair_coeff.set('M' ,'A' , epsilon = 1.0, sigma = 1.0);
Ramp_5_4.py:071  |  lj.pair_coeff.set('NP','M' , epsilon = 1.0, sigma = 3.0);
Ramp_5_4.py:072  |  lj.pair_coeff.set('NP','A' , epsilon = 1.0, sigma = 3.0);
Ramp_5_4.py:076  |  hoomd.md.integrate.mode_standard(dt = 0.005);
Ramp_5_4.py:080  |  nanoparticles = hoomd.group.type(name = 'Nano_Particles', type = 'NP');
notice(2): Group "Nano_Particles" created containing 4 particles
Ramp_5_4.py:081  |  mesogens = hoomd.group.rigid_center();
notice(2): Group "rigid_center" created containing 1000 particles
notice(2): Group "NP_Mes" created containing 1004 particles
Ramp_5_4.py:088  |  npt = hoomd.md.integrate.npt(group = groupNP_mes, kT = temp, tau = 2.0, tauP = 3.0, P = p_max);
Ramp_5_4.py:097  |  log = hoomd.analyze.log(filename = log_file,
                         quantities = ['num_particles',
                                     'ndof',
                                     'translational_ndof',
                                     'rotational_ndof',
                                     'potential_energy',
                                     'kinetic_energy',
                                     'translational_kinetic_energy',
                                     'rotational_kinetic_energy',
                                     'temperature',
                                     'pressure',
                                      'volume'],
                         period = 1e3,
                         overwrite = True);
Ramp_5_4.py:113  |                 group = hoomd.group.all(),
Ramp_5_4.py:111  |  gsd = hoomd.dump.gsd(gsd_file,
               period = 1e3,
               group = hoomd.group.all(),
               overwrite = True); 
Ramp_5_4.py:115  |  meso_gsd = hoomd.dump.gsd(meso_gsd_file,
               period = 1e3,
               group = groupNP_mes,
               overwrite = True); 
Ramp_5_4.py:126  |  hoomd.run(steps_ramp)
notice(2): -- Neighborlist exclusion statistics -- :
notice(2): Particles with 0 exclusions             : 9004
notice(2): Neighbors included by diameter          : no
notice(2): Neighbors excluded when in the same body: yes
** starting run **
Time 00:00:10 | Step 757067 / 805000 | TPS 206.489 | ETA 00:03:52
Time 00:00:20 | Step 759398 / 805000 | TPS 232.892 | ETA 00:03:15
Time 00:00:30 | Step 761704 / 805000 | TPS 230.442 | ETA 00:03:07
Time 00:00:40 | Step 764023 / 805000 | TPS 231.803 | ETA 00:02:56
Time 00:00:50 | Step 766351 / 805000 | TPS 232.655 | ETA 00:02:46
Time 00:01:00 | Step 768664 / 805000 | TPS 231.284 | ETA 00:02:37
Time 00:01:10 | Step 770990 / 805000 | TPS 232.531 | ETA 00:02:26
Time 00:01:20 | Step 773319 / 805000 | TPS 232.891 | ETA 00:02:16
Time 00:01:30 | Step 775639 / 805000 | TPS 231.991 | ETA 00:02:06
Time 00:01:40 | Step 777963 / 805000 | TPS 232.306 | ETA 00:01:56
Time 00:01:50 | Step 780299 / 805000 | TPS 233.457 | ETA 00:01:45
Time 00:02:00 | Step 782645 / 805000 | TPS 234.386 | ETA 00:01:35
Time 00:02:10 | Step 784993 / 805000 | TPS 234.673 | ETA 00:01:25
Time 00:02:20 | Step 787340 / 805000 | TPS 234.696 | ETA 00:01:15
Time 00:02:30 | Step 789680 / 805000 | TPS 233.836 | ETA 00:01:05
Time 00:02:40 | Step 792023 / 805000 | TPS 234.236 | ETA 00:00:55
Time 00:02:50 | Step 794340 / 805000 | TPS 231.623 | ETA 00:00:46
Time 00:03:00 | Step 796660 / 805000 | TPS 231.783 | ETA 00:00:35
Time 00:03:10 | Step 798987 / 805000 | TPS 232.503 | ETA 00:00:25
Time 00:03:20 | Step 801374 / 805000 | TPS 238.515 | ETA 00:00:15
Time 00:03:28 | Step 805000 / 805000 | TPS 444.387 | ETA 00:00:00
Average TPS: 240.08
---------
-- Neighborlist stats:
16688 normal updates / 168 forced updates / 0 dangerous updates
n_neigh_min: 0 / n_neigh_max: 0 / n_neigh_avg: 0
shortest rebuild period: 1
** run complete **
[33mWARNING: Skipping user bind, non existent bind point (file) in container: '/usr/bin/nvidia-smi'
[0m[33mWARNING: Skipping user bind, non existent bind point (file) in container: '/usr/bin/nvidia-debugdump'
[0m[33mWARNING: Skipping user bind, non existent bind point (file) in container: '/usr/bin/nvidia-persistenced'
[0m[33mWARNING: Skipping user bind, non existent bind point (file) in container: '/usr/bin/nvidia-cuda-mps-control'
[0m[33mWARNING: Skipping user bind, non existent bind point (file) in container: '/usr/bin/nvidia-cuda-mps-server'
[0mHOOMD-blue 2.3.5 CUDA (8.0) DOUBLE HPMC_MIXED TBB SSE SSE2 
Compiled: 10/08/18
Copyright 2009-2018 The Regents of the University of Michigan.
-----
You are using HOOMD-blue. Please cite the following:
* J A Anderson, C D Lorenz, and A Travesset. "General purpose molecular dynamics
  simulations fully implemented on graphics processing units", Journal of
  Computational Physics 227 (2008) 5342--5359
* J Glaser, T D Nguyen, J A Anderson, P Liu, F Spiga, J A Millan, D C Morse, and
  S C Glotzer. "Strong scaling of general-purpose molecular dynamics simulations
  on GPUs", Computer Physics Communications 192 (2015) 97--107
-----
notice(2): This system is not compute exclusive, using local rank to select GPUs
HOOMD-blue is running on the following GPU(s):
 [0]            Tesla K20m  13 SM_3.5 @ 0.706 GHz, 4743 MiB DRAM
Ramp_5_6.py:044  |  system = hoomd.init.read_gsd(ramp_file, frame = -1);
notice(2): Group "all" created containing 1004 particles
Ramp_5_6.py:048  |  rigid = hoomd.md.constrain.rigid();
notice(2): constrain.rigid(): Creating 1000 rigid bodies (adding 8000 particles)
Ramp_5_6.py:060  |  nl = hoomd.md.nlist.tree();
-----
You are using tree neighbor lists. Please cite the following:
* M P Howard, J A Anderson, A Nikoubashman, S C Glotzer, and A Z
  Panagiotopoulos. "Efficient neighbor list calculation for molecular simulation
  of colloidal systems using graphics processing units", Computer Physics
  Communications 203 (2016) 45--52
-----
Ramp_5_6.py:062  |  lj = hoomd.md.pair.lj(r_cut = 3.5, nlist = nl)
Ramp_5_6.py:063  |  lj.set_params(mode = 'shift')
Ramp_5_6.py:067  |  lj.pair_coeff.set('NP','NP', epsilon = 1.0, sigma = 5.0);
Ramp_5_6.py:068  |  lj.pair_coeff.set('M' ,'M' , epsilon = 1.0, sigma = 1.0);
Ramp_5_6.py:069  |  lj.pair_coeff.set('A' ,'A' , epsilon = 1.0, sigma = 1.0);
Ramp_5_6.py:070  |  lj.pair_coeff.set('M' ,'A' , epsilon = 1.0, sigma = 1.0);
Ramp_5_6.py:071  |  lj.pair_coeff.set('NP','M' , epsilon = 1.0, sigma = 3.0);
Ramp_5_6.py:072  |  lj.pair_coeff.set('NP','A' , epsilon = 1.0, sigma = 3.0);
Ramp_5_6.py:076  |  hoomd.md.integrate.mode_standard(dt = 0.005);
Ramp_5_6.py:080  |  nanoparticles = hoomd.group.type(name = 'Nano_Particles', type = 'NP');
notice(2): Group "Nano_Particles" created containing 4 particles
Ramp_5_6.py:081  |  mesogens = hoomd.group.rigid_center();
notice(2): Group "rigid_center" created containing 1000 particles
notice(2): Group "NP_Mes" created containing 1004 particles
Ramp_5_6.py:088  |  npt = hoomd.md.integrate.npt(group = groupNP_mes, kT = temp, tau = 2.0, tauP = 3.0, P = p_max);
Ramp_5_6.py:097  |  log = hoomd.analyze.log(filename = log_file,
                         quantities = ['num_particles',
                                     'ndof',
                                     'translational_ndof',
                                     'rotational_ndof',
                                     'potential_energy',
                                     'kinetic_energy',
                                     'translational_kinetic_energy',
                                     'rotational_kinetic_energy',
                                     'temperature',
                                     'pressure',
                                      'volume'],
                         period = 1e3,
                         overwrite = True);
Ramp_5_6.py:113  |                 group = hoomd.group.all(),
Ramp_5_6.py:111  |  gsd = hoomd.dump.gsd(gsd_file,
               period = 1e3,
               group = hoomd.group.all(),
               overwrite = True); 
Ramp_5_6.py:115  |  meso_gsd = hoomd.dump.gsd(meso_gsd_file,
               period = 1e3,
               group = groupNP_mes,
               overwrite = True); 
Ramp_5_6.py:126  |  hoomd.run(steps_ramp)
notice(2): -- Neighborlist exclusion statistics -- :
notice(2): Particles with 0 exclusions             : 9004
notice(2): Neighbors included by diameter          : no
notice(2): Neighbors excluded when in the same body: yes
** starting run **
Time 00:00:10 | Step 809101 / 854000 | TPS 497.416 | ETA 00:01:30
Time 00:00:20 | Step 816001 / 854000 | TPS 675.77 | ETA 00:00:56
Time 00:00:30 | Step 821701 / 854000 | TPS 566.758 | ETA 00:00:56
Time 00:00:41 | Step 826801 / 854000 | TPS 494.646 | ETA 00:00:54
Time 00:00:51 | Step 830701 / 854000 | TPS 381.691 | ETA 00:01:01
Time 00:01:01 | Step 834601 / 854000 | TPS 381.85 | ETA 00:00:50
Time 00:01:11 | Step 840901 / 854000 | TPS 609.554 | ETA 00:00:21
Time 00:01:22 | Step 847201 / 854000 | TPS 616.931 | ETA 00:00:11
Time 00:01:32 | Step 853801 / 854000 | TPS 641.041 | ETA 00:00:00
Time 00:01:32 | Step 854000 / 854000 | TPS 2501.19 | ETA 00:00:00
Average TPS: 542.376
---------
-- Neighborlist stats:
0 normal updates / 168 forced updates / 0 dangerous updates
n_neigh_min: 0 / n_neigh_max: 0 / n_neigh_avg: 0
shortest rebuild period: 100
** run complete **
[33mWARNING: Skipping user bind, non existent bind point (file) in container: '/usr/bin/nvidia-smi'
[0m[33mWARNING: Skipping user bind, non existent bind point (file) in container: '/usr/bin/nvidia-debugdump'
[0m[33mWARNING: Skipping user bind, non existent bind point (file) in container: '/usr/bin/nvidia-persistenced'
[0m[33mWARNING: Skipping user bind, non existent bind point (file) in container: '/usr/bin/nvidia-cuda-mps-control'
[0m[33mWARNING: Skipping user bind, non existent bind point (file) in container: '/usr/bin/nvidia-cuda-mps-server'
[0mHOOMD-blue 2.3.5 CUDA (8.0) DOUBLE HPMC_MIXED TBB SSE SSE2 
Compiled: 10/08/18
Copyright 2009-2018 The Regents of the University of Michigan.
-----
You are using HOOMD-blue. Please cite the following:
* J A Anderson, C D Lorenz, and A Travesset. "General purpose molecular dynamics
  simulations fully implemented on graphics processing units", Journal of
  Computational Physics 227 (2008) 5342--5359
* J Glaser, T D Nguyen, J A Anderson, P Liu, F Spiga, J A Millan, D C Morse, and
  S C Glotzer. "Strong scaling of general-purpose molecular dynamics simulations
  on GPUs", Computer Physics Communications 192 (2015) 97--107
-----
notice(2): This system is not compute exclusive, using local rank to select GPUs
HOOMD-blue is running on the following GPU(s):
 [0]            Tesla K20m  13 SM_3.5 @ 0.706 GHz, 4743 MiB DRAM
Ramp_5_8.py:044  |  system = hoomd.init.read_gsd(ramp_file, frame = -1);
notice(2): Group "all" created containing 1004 particles
Ramp_5_8.py:048  |  rigid = hoomd.md.constrain.rigid();
notice(2): constrain.rigid(): Creating 1000 rigid bodies (adding 8000 particles)
Ramp_5_8.py:060  |  nl = hoomd.md.nlist.tree();
-----
You are using tree neighbor lists. Please cite the following:
* M P Howard, J A Anderson, A Nikoubashman, S C Glotzer, and A Z
  Panagiotopoulos. "Efficient neighbor list calculation for molecular simulation
  of colloidal systems using graphics processing units", Computer Physics
  Communications 203 (2016) 45--52
-----
Ramp_5_8.py:062  |  lj = hoomd.md.pair.lj(r_cut = 3.5, nlist = nl)
Ramp_5_8.py:063  |  lj.set_params(mode = 'shift')
Ramp_5_8.py:067  |  lj.pair_coeff.set('NP','NP', epsilon = 1.0, sigma = 5.0);
Ramp_5_8.py:068  |  lj.pair_coeff.set('M' ,'M' , epsilon = 1.0, sigma = 1.0);
Ramp_5_8.py:069  |  lj.pair_coeff.set('A' ,'A' , epsilon = 1.0, sigma = 1.0);
Ramp_5_8.py:070  |  lj.pair_coeff.set('M' ,'A' , epsilon = 1.0, sigma = 1.0);
Ramp_5_8.py:071  |  lj.pair_coeff.set('NP','M' , epsilon = 1.0, sigma = 3.0);
Ramp_5_8.py:072  |  lj.pair_coeff.set('NP','A' , epsilon = 1.0, sigma = 3.0);
Ramp_5_8.py:076  |  hoomd.md.integrate.mode_standard(dt = 0.005);
Ramp_5_8.py:080  |  nanoparticles = hoomd.group.type(name = 'Nano_Particles', type = 'NP');
notice(2): Group "Nano_Particles" created containing 4 particles
Ramp_5_8.py:081  |  mesogens = hoomd.group.rigid_center();
notice(2): Group "rigid_center" created containing 1000 particles
notice(2): Group "NP_Mes" created containing 1004 particles
Ramp_5_8.py:088  |  npt = hoomd.md.integrate.npt(group = groupNP_mes, kT = temp, tau = 2.0, tauP = 3.0, P = p_max);
Ramp_5_8.py:097  |  log = hoomd.analyze.log(filename = log_file,
                         quantities = ['num_particles',
                                     'ndof',
                                     'translational_ndof',
                                     'rotational_ndof',
                                     'potential_energy',
                                     'kinetic_energy',
                                     'translational_kinetic_energy',
                                     'rotational_kinetic_energy',
                                     'temperature',
                                     'pressure',
                                      'volume'],
                         period = 1e3,
                         overwrite = True);
Ramp_5_8.py:113  |                 group = hoomd.group.all(),
Ramp_5_8.py:111  |  gsd = hoomd.dump.gsd(gsd_file,
               period = 1e3,
               group = hoomd.group.all(),
               overwrite = True); 
Ramp_5_8.py:115  |  meso_gsd = hoomd.dump.gsd(meso_gsd_file,
               period = 1e3,
               group = groupNP_mes,
               overwrite = True); 
Ramp_5_8.py:126  |  hoomd.run(steps_ramp)
notice(2): -- Neighborlist exclusion statistics -- :
notice(2): Particles with 0 exclusions             : 9004
notice(2): Neighbors included by diameter          : no
notice(2): Neighbors excluded when in the same body: yes
** starting run **
Time 00:00:10 | Step 858257 / 903000 | TPS 525.681 | ETA 00:01:25
Time 00:00:20 | Step 864901 / 903000 | TPS 658.42 | ETA 00:00:57
Time 00:00:30 | Step 870601 / 903000 | TPS 567.132 | ETA 00:00:57
Time 00:00:40 | Step 875737 / 903000 | TPS 513.58 | ETA 00:00:53
Time 00:00:50 | Step 879601 / 903000 | TPS 379.241 | ETA 00:01:01
Time 00:01:00 | Step 883501 / 903000 | TPS 381.496 | ETA 00:00:51
Time 00:01:10 | Step 889501 / 903000 | TPS 591.52 | ETA 00:00:22
Time 00:01:21 | Step 895801 / 903000 | TPS 618.148 | ETA 00:00:11
Time 00:01:31 | Step 902199 / 903000 | TPS 639.774 | ETA 00:00:01
Time 00:01:32 | Step 903000 / 903000 | TPS 841.653 | ETA 00:00:00
Average TPS: 544.419
---------
-- Neighborlist stats:
0 normal updates / 167 forced updates / 0 dangerous updates
n_neigh_min: 0 / n_neigh_max: 0 / n_neigh_avg: 0
shortest rebuild period: 100
** run complete **
[33mWARNING: Skipping user bind, non existent bind point (file) in container: '/usr/bin/nvidia-smi'
[0m[33mWARNING: Skipping user bind, non existent bind point (file) in container: '/usr/bin/nvidia-debugdump'
[0m[33mWARNING: Skipping user bind, non existent bind point (file) in container: '/usr/bin/nvidia-persistenced'
[0m[33mWARNING: Skipping user bind, non existent bind point (file) in container: '/usr/bin/nvidia-cuda-mps-control'
[0m[33mWARNING: Skipping user bind, non existent bind point (file) in container: '/usr/bin/nvidia-cuda-mps-server'
[0mHOOMD-blue 2.3.5 CUDA (8.0) DOUBLE HPMC_MIXED TBB SSE SSE2 
Compiled: 10/08/18
Copyright 2009-2018 The Regents of the University of Michigan.
-----
You are using HOOMD-blue. Please cite the following:
* J A Anderson, C D Lorenz, and A Travesset. "General purpose molecular dynamics
  simulations fully implemented on graphics processing units", Journal of
  Computational Physics 227 (2008) 5342--5359
* J Glaser, T D Nguyen, J A Anderson, P Liu, F Spiga, J A Millan, D C Morse, and
  S C Glotzer. "Strong scaling of general-purpose molecular dynamics simulations
  on GPUs", Computer Physics Communications 192 (2015) 97--107
-----
notice(2): This system is not compute exclusive, using local rank to select GPUs
HOOMD-blue is running on the following GPU(s):
 [0]            Tesla K20m  13 SM_3.5 @ 0.706 GHz, 4743 MiB DRAM
Ramp_6_0.py:044  |  system = hoomd.init.read_gsd(ramp_file, frame = -1);
notice(2): Group "all" created containing 1004 particles
Ramp_6_0.py:048  |  rigid = hoomd.md.constrain.rigid();
notice(2): constrain.rigid(): Creating 1000 rigid bodies (adding 8000 particles)
Ramp_6_0.py:060  |  nl = hoomd.md.nlist.tree();
-----
You are using tree neighbor lists. Please cite the following:
* M P Howard, J A Anderson, A Nikoubashman, S C Glotzer, and A Z
  Panagiotopoulos. "Efficient neighbor list calculation for molecular simulation
  of colloidal systems using graphics processing units", Computer Physics
  Communications 203 (2016) 45--52
-----
Ramp_6_0.py:062  |  lj = hoomd.md.pair.lj(r_cut = 3.5, nlist = nl)
Ramp_6_0.py:063  |  lj.set_params(mode = 'shift')
Ramp_6_0.py:067  |  lj.pair_coeff.set('NP','NP', epsilon = 1.0, sigma = 5.0);
Ramp_6_0.py:068  |  lj.pair_coeff.set('M' ,'M' , epsilon = 1.0, sigma = 1.0);
Ramp_6_0.py:069  |  lj.pair_coeff.set('A' ,'A' , epsilon = 1.0, sigma = 1.0);
Ramp_6_0.py:070  |  lj.pair_coeff.set('M' ,'A' , epsilon = 1.0, sigma = 1.0);
Ramp_6_0.py:071  |  lj.pair_coeff.set('NP','M' , epsilon = 1.0, sigma = 3.0);
Ramp_6_0.py:072  |  lj.pair_coeff.set('NP','A' , epsilon = 1.0, sigma = 3.0);
Ramp_6_0.py:076  |  hoomd.md.integrate.mode_standard(dt = 0.005);
Ramp_6_0.py:080  |  nanoparticles = hoomd.group.type(name = 'Nano_Particles', type = 'NP');
notice(2): Group "Nano_Particles" created containing 4 particles
Ramp_6_0.py:081  |  mesogens = hoomd.group.rigid_center();
notice(2): Group "rigid_center" created containing 1000 particles
notice(2): Group "NP_Mes" created containing 1004 particles
Ramp_6_0.py:088  |  npt = hoomd.md.integrate.npt(group = groupNP_mes, kT = temp, tau = 2.0, tauP = 3.0, P = p_max);
Ramp_6_0.py:097  |  log = hoomd.analyze.log(filename = log_file,
                         quantities = ['num_particles',
                                     'ndof',
                                     'translational_ndof',
                                     'rotational_ndof',
                                     'potential_energy',
                                     'kinetic_energy',
                                     'translational_kinetic_energy',
                                     'rotational_kinetic_energy',
                                     'temperature',
                                     'pressure',
                                      'volume'],
                         period = 1e3,
                         overwrite = True);
Ramp_6_0.py:113  |                 group = hoomd.group.all(),
Ramp_6_0.py:111  |  gsd = hoomd.dump.gsd(gsd_file,
               period = 1e3,
               group = hoomd.group.all(),
               overwrite = True); 
Ramp_6_0.py:115  |  meso_gsd = hoomd.dump.gsd(meso_gsd_file,
               period = 1e3,
               group = groupNP_mes,
               overwrite = True); 
Ramp_6_0.py:126  |  hoomd.run(steps_ramp)
notice(2): -- Neighborlist exclusion statistics -- :
notice(2): Particles with 0 exclusions             : 9004
notice(2): Neighbors included by diameter          : no
notice(2): Neighbors excluded when in the same body: yes
** starting run **
Time 00:00:10 | Step 907201 / 952000 | TPS 505.049 | ETA 00:01:28
Time 00:00:20 | Step 914101 / 952000 | TPS 675.618 | ETA 00:00:56
Time 00:00:30 | Step 919801 / 952000 | TPS 567.283 | ETA 00:00:56
Time 00:00:41 | Step 924901 / 952000 | TPS 494.743 | ETA 00:00:54
Time 00:00:51 | Step 928801 / 952000 | TPS 381.527 | ETA 00:01:00
Time 00:01:01 | Step 932701 / 952000 | TPS 381.948 | ETA 00:00:50
Time 00:01:11 | Step 939001 / 952000 | TPS 609.291 | ETA 00:00:21
Time 00:01:22 | Step 945301 / 952000 | TPS 618.148 | ETA 00:00:10
Time 00:01:32 | Step 951901 / 952000 | TPS 640.859 | ETA 00:00:00
Time 00:01:32 | Step 952000 / 952000 | TPS 2493.64 | ETA 00:00:00
Average TPS: 542.475
---------
-- Neighborlist stats:
0 normal updates / 168 forced updates / 0 dangerous updates
n_neigh_min: 0 / n_neigh_max: 0 / n_neigh_avg: 0
shortest rebuild period: 100
** run complete **
[33mWARNING: Skipping user bind, non existent bind point (file) in container: '/usr/bin/nvidia-smi'
[0m[33mWARNING: Skipping user bind, non existent bind point (file) in container: '/usr/bin/nvidia-debugdump'
[0m[33mWARNING: Skipping user bind, non existent bind point (file) in container: '/usr/bin/nvidia-persistenced'
[0m[33mWARNING: Skipping user bind, non existent bind point (file) in container: '/usr/bin/nvidia-cuda-mps-control'
[0m[33mWARNING: Skipping user bind, non existent bind point (file) in container: '/usr/bin/nvidia-cuda-mps-server'
[0mHOOMD-blue 2.3.5 CUDA (8.0) DOUBLE HPMC_MIXED TBB SSE SSE2 
Compiled: 10/08/18
Copyright 2009-2018 The Regents of the University of Michigan.
-----
You are using HOOMD-blue. Please cite the following:
* J A Anderson, C D Lorenz, and A Travesset. "General purpose molecular dynamics
  simulations fully implemented on graphics processing units", Journal of
  Computational Physics 227 (2008) 5342--5359
* J Glaser, T D Nguyen, J A Anderson, P Liu, F Spiga, J A Millan, D C Morse, and
  S C Glotzer. "Strong scaling of general-purpose molecular dynamics simulations
  on GPUs", Computer Physics Communications 192 (2015) 97--107
-----
notice(2): This system is not compute exclusive, using local rank to select GPUs
HOOMD-blue is running on the following GPU(s):
 [0]            Tesla K20m  13 SM_3.5 @ 0.706 GHz, 4743 MiB DRAM
Ramp_6_2.py:044  |  system = hoomd.init.read_gsd(ramp_file, frame = -1);
notice(2): Group "all" created containing 1004 particles
Ramp_6_2.py:048  |  rigid = hoomd.md.constrain.rigid();
notice(2): constrain.rigid(): Creating 1000 rigid bodies (adding 8000 particles)
Ramp_6_2.py:060  |  nl = hoomd.md.nlist.tree();
-----
You are using tree neighbor lists. Please cite the following:
* M P Howard, J A Anderson, A Nikoubashman, S C Glotzer, and A Z
  Panagiotopoulos. "Efficient neighbor list calculation for molecular simulation
  of colloidal systems using graphics processing units", Computer Physics
  Communications 203 (2016) 45--52
-----
Ramp_6_2.py:062  |  lj = hoomd.md.pair.lj(r_cut = 3.5, nlist = nl)
Ramp_6_2.py:063  |  lj.set_params(mode = 'shift')
Ramp_6_2.py:067  |  lj.pair_coeff.set('NP','NP', epsilon = 1.0, sigma = 5.0);
Ramp_6_2.py:068  |  lj.pair_coeff.set('M' ,'M' , epsilon = 1.0, sigma = 1.0);
Ramp_6_2.py:069  |  lj.pair_coeff.set('A' ,'A' , epsilon = 1.0, sigma = 1.0);
Ramp_6_2.py:070  |  lj.pair_coeff.set('M' ,'A' , epsilon = 1.0, sigma = 1.0);
Ramp_6_2.py:071  |  lj.pair_coeff.set('NP','M' , epsilon = 1.0, sigma = 3.0);
Ramp_6_2.py:072  |  lj.pair_coeff.set('NP','A' , epsilon = 1.0, sigma = 3.0);
Ramp_6_2.py:076  |  hoomd.md.integrate.mode_standard(dt = 0.005);
Ramp_6_2.py:080  |  nanoparticles = hoomd.group.type(name = 'Nano_Particles', type = 'NP');
notice(2): Group "Nano_Particles" created containing 4 particles
Ramp_6_2.py:081  |  mesogens = hoomd.group.rigid_center();
notice(2): Group "rigid_center" created containing 1000 particles
notice(2): Group "NP_Mes" created containing 1004 particles
Ramp_6_2.py:088  |  npt = hoomd.md.integrate.npt(group = groupNP_mes, kT = temp, tau = 2.0, tauP = 3.0, P = p_max);
Ramp_6_2.py:097  |  log = hoomd.analyze.log(filename = log_file,
                         quantities = ['num_particles',
                                     'ndof',
                                     'translational_ndof',
                                     'rotational_ndof',
                                     'potential_energy',
                                     'kinetic_energy',
                                     'translational_kinetic_energy',
                                     'rotational_kinetic_energy',
                                     'temperature',
                                     'pressure',
                                      'volume'],
                         period = 1e3,
                         overwrite = True);
Ramp_6_2.py:113  |                 group = hoomd.group.all(),
Ramp_6_2.py:111  |  gsd = hoomd.dump.gsd(gsd_file,
               period = 1e3,
               group = hoomd.group.all(),
               overwrite = True); 
Ramp_6_2.py:115  |  meso_gsd = hoomd.dump.gsd(meso_gsd_file,
               period = 1e3,
               group = groupNP_mes,
               overwrite = True); 
Ramp_6_2.py:126  |  hoomd.run(steps_ramp)
notice(2): -- Neighborlist exclusion statistics -- :
notice(2): Particles with 0 exclusions             : 9004
notice(2): Neighbors included by diameter          : no
notice(2): Neighbors excluded when in the same body: yes
** starting run **
Time 00:00:10 | Step 956101 / 1001000 | TPS 497.716 | ETA 00:01:30
Time 00:00:20 | Step 963001 / 1001000 | TPS 675.901 | ETA 00:00:56
Time 00:00:30 | Step 968701 / 1001000 | TPS 567.142 | ETA 00:00:56
Time 00:00:41 | Step 973801 / 1001000 | TPS 495.006 | ETA 00:00:54
Time 00:00:51 | Step 977701 / 1001000 | TPS 381.802 | ETA 00:01:01
Time 00:01:01 | Step 981601 / 1001000 | TPS 382.02 | ETA 00:00:50
Time 00:01:11 | Step 987901 / 1001000 | TPS 609.859 | ETA 00:00:21
Time 00:01:21 | Step 994201 / 1001000 | TPS 617.739 | ETA 00:00:11
Time 00:01:32 | Step 1000801 / 1001000 | TPS 641.178 | ETA 00:00:00
Time 00:01:32 | Step 1001000 / 1001000 | TPS 2500.66 | ETA 00:00:00
Average TPS: 542.675
---------
-- Neighborlist stats:
0 normal updates / 168 forced updates / 0 dangerous updates
n_neigh_min: 0 / n_neigh_max: 0 / n_neigh_avg: 0
shortest rebuild period: 100
** run complete **
[33mWARNING: Skipping user bind, non existent bind point (file) in container: '/usr/bin/nvidia-smi'
[0m[33mWARNING: Skipping user bind, non existent bind point (file) in container: '/usr/bin/nvidia-debugdump'
[0m[33mWARNING: Skipping user bind, non existent bind point (file) in container: '/usr/bin/nvidia-persistenced'
[0m[33mWARNING: Skipping user bind, non existent bind point (file) in container: '/usr/bin/nvidia-cuda-mps-control'
[0m[33mWARNING: Skipping user bind, non existent bind point (file) in container: '/usr/bin/nvidia-cuda-mps-server'
[0mHOOMD-blue 2.3.5 CUDA (8.0) DOUBLE HPMC_MIXED TBB SSE SSE2 
Compiled: 10/08/18
Copyright 2009-2018 The Regents of the University of Michigan.
-----
You are using HOOMD-blue. Please cite the following:
* J A Anderson, C D Lorenz, and A Travesset. "General purpose molecular dynamics
  simulations fully implemented on graphics processing units", Journal of
  Computational Physics 227 (2008) 5342--5359
* J Glaser, T D Nguyen, J A Anderson, P Liu, F Spiga, J A Millan, D C Morse, and
  S C Glotzer. "Strong scaling of general-purpose molecular dynamics simulations
  on GPUs", Computer Physics Communications 192 (2015) 97--107
-----
notice(2): This system is not compute exclusive, using local rank to select GPUs
HOOMD-blue is running on the following GPU(s):
 [0]            Tesla K20m  13 SM_3.5 @ 0.706 GHz, 4743 MiB DRAM
Ramp_6_4.py:044  |  system = hoomd.init.read_gsd(ramp_file, frame = -1);
notice(2): Group "all" created containing 1004 particles
Ramp_6_4.py:048  |  rigid = hoomd.md.constrain.rigid();
notice(2): constrain.rigid(): Creating 1000 rigid bodies (adding 8000 particles)
Ramp_6_4.py:060  |  nl = hoomd.md.nlist.tree();
-----
You are using tree neighbor lists. Please cite the following:
* M P Howard, J A Anderson, A Nikoubashman, S C Glotzer, and A Z
  Panagiotopoulos. "Efficient neighbor list calculation for molecular simulation
  of colloidal systems using graphics processing units", Computer Physics
  Communications 203 (2016) 45--52
-----
Ramp_6_4.py:062  |  lj = hoomd.md.pair.lj(r_cut = 3.5, nlist = nl)
Ramp_6_4.py:063  |  lj.set_params(mode = 'shift')
Ramp_6_4.py:067  |  lj.pair_coeff.set('NP','NP', epsilon = 1.0, sigma = 5.0);
Ramp_6_4.py:068  |  lj.pair_coeff.set('M' ,'M' , epsilon = 1.0, sigma = 1.0);
Ramp_6_4.py:069  |  lj.pair_coeff.set('A' ,'A' , epsilon = 1.0, sigma = 1.0);
Ramp_6_4.py:070  |  lj.pair_coeff.set('M' ,'A' , epsilon = 1.0, sigma = 1.0);
Ramp_6_4.py:071  |  lj.pair_coeff.set('NP','M' , epsilon = 1.0, sigma = 3.0);
Ramp_6_4.py:072  |  lj.pair_coeff.set('NP','A' , epsilon = 1.0, sigma = 3.0);
Ramp_6_4.py:076  |  hoomd.md.integrate.mode_standard(dt = 0.005);
Ramp_6_4.py:080  |  nanoparticles = hoomd.group.type(name = 'Nano_Particles', type = 'NP');
notice(2): Group "Nano_Particles" created containing 4 particles
Ramp_6_4.py:081  |  mesogens = hoomd.group.rigid_center();
notice(2): Group "rigid_center" created containing 1000 particles
notice(2): Group "NP_Mes" created containing 1004 particles
Ramp_6_4.py:088  |  npt = hoomd.md.integrate.npt(group = groupNP_mes, kT = temp, tau = 2.0, tauP = 3.0, P = p_max);
Ramp_6_4.py:097  |  log = hoomd.analyze.log(filename = log_file,
                         quantities = ['num_particles',
                                     'ndof',
                                     'translational_ndof',
                                     'rotational_ndof',
                                     'potential_energy',
                                     'kinetic_energy',
                                     'translational_kinetic_energy',
                                     'rotational_kinetic_energy',
                                     'temperature',
                                     'pressure',
                                      'volume'],
                         period = 1e3,
                         overwrite = True);
Ramp_6_4.py:113  |                 group = hoomd.group.all(),
Ramp_6_4.py:111  |  gsd = hoomd.dump.gsd(gsd_file,
               period = 1e3,
               group = hoomd.group.all(),
               overwrite = True); 
Ramp_6_4.py:115  |  meso_gsd = hoomd.dump.gsd(meso_gsd_file,
               period = 1e3,
               group = groupNP_mes,
               overwrite = True); 
Ramp_6_4.py:126  |  hoomd.run(steps_ramp)
notice(2): -- Neighborlist exclusion statistics -- :
notice(2): Particles with 0 exclusions             : 9004
notice(2): Neighbors included by diameter          : no
notice(2): Neighbors excluded when in the same body: yes
** starting run **
Time 00:00:10 | Step 1005220 / 1050000 | TPS 521.999 | ETA 00:01:25
Time 00:00:20 | Step 1011901 / 1050000 | TPS 660.418 | ETA 00:00:57
Time 00:00:30 | Step 1017601 / 1050000 | TPS 566.73 | ETA 00:00:57
Time 00:00:40 | Step 1022722 / 1050000 | TPS 512.098 | ETA 00:00:53
Time 00:00:50 | Step 1026601 / 1050000 | TPS 380.286 | ETA 00:01:01
Time 00:01:00 | Step 1030501 / 1050000 | TPS 381.437 | ETA 00:00:51
Time 00:01:10 | Step 1036501 / 1050000 | TPS 590.942 | ETA 00:00:22
Time 00:01:21 | Step 1042801 / 1050000 | TPS 617.678 | ETA 00:00:11
Time 00:01:31 | Step 1049173 / 1050000 | TPS 637.193 | ETA 00:00:01
Time 00:01:32 | Step 1050000 / 1050000 | TPS 858.665 | ETA 00:00:00
Average TPS: 543.982
---------
-- Neighborlist stats:
0 normal updates / 167 forced updates / 0 dangerous updates
n_neigh_min: 0 / n_neigh_max: 0 / n_neigh_avg: 0
shortest rebuild period: 100
** run complete **
[33mWARNING: Skipping user bind, non existent bind point (file) in container: '/usr/bin/nvidia-smi'
[0m[33mWARNING: Skipping user bind, non existent bind point (file) in container: '/usr/bin/nvidia-debugdump'
[0m[33mWARNING: Skipping user bind, non existent bind point (file) in container: '/usr/bin/nvidia-persistenced'
[0m[33mWARNING: Skipping user bind, non existent bind point (file) in container: '/usr/bin/nvidia-cuda-mps-control'
[0m[33mWARNING: Skipping user bind, non existent bind point (file) in container: '/usr/bin/nvidia-cuda-mps-server'
[0mHOOMD-blue 2.3.5 CUDA (8.0) DOUBLE HPMC_MIXED TBB SSE SSE2 
Compiled: 10/08/18
Copyright 2009-2018 The Regents of the University of Michigan.
-----
You are using HOOMD-blue. Please cite the following:
* J A Anderson, C D Lorenz, and A Travesset. "General purpose molecular dynamics
  simulations fully implemented on graphics processing units", Journal of
  Computational Physics 227 (2008) 5342--5359
* J Glaser, T D Nguyen, J A Anderson, P Liu, F Spiga, J A Millan, D C Morse, and
  S C Glotzer. "Strong scaling of general-purpose molecular dynamics simulations
  on GPUs", Computer Physics Communications 192 (2015) 97--107
-----
notice(2): This system is not compute exclusive, using local rank to select GPUs
HOOMD-blue is running on the following GPU(s):
 [0]            Tesla K20m  13 SM_3.5 @ 0.706 GHz, 4743 MiB DRAM
Ramp_6_6.py:044  |  system = hoomd.init.read_gsd(ramp_file, frame = -1);
notice(2): Group "all" created containing 1004 particles
Ramp_6_6.py:048  |  rigid = hoomd.md.constrain.rigid();
notice(2): constrain.rigid(): Creating 1000 rigid bodies (adding 8000 particles)
Ramp_6_6.py:060  |  nl = hoomd.md.nlist.tree();
-----
You are using tree neighbor lists. Please cite the following:
* M P Howard, J A Anderson, A Nikoubashman, S C Glotzer, and A Z
  Panagiotopoulos. "Efficient neighbor list calculation for molecular simulation
  of colloidal systems using graphics processing units", Computer Physics
  Communications 203 (2016) 45--52
-----
Ramp_6_6.py:062  |  lj = hoomd.md.pair.lj(r_cut = 3.5, nlist = nl)
Ramp_6_6.py:063  |  lj.set_params(mode = 'shift')
Ramp_6_6.py:067  |  lj.pair_coeff.set('NP','NP', epsilon = 1.0, sigma = 5.0);
Ramp_6_6.py:068  |  lj.pair_coeff.set('M' ,'M' , epsilon = 1.0, sigma = 1.0);
Ramp_6_6.py:069  |  lj.pair_coeff.set('A' ,'A' , epsilon = 1.0, sigma = 1.0);
Ramp_6_6.py:070  |  lj.pair_coeff.set('M' ,'A' , epsilon = 1.0, sigma = 1.0);
Ramp_6_6.py:071  |  lj.pair_coeff.set('NP','M' , epsilon = 1.0, sigma = 3.0);
Ramp_6_6.py:072  |  lj.pair_coeff.set('NP','A' , epsilon = 1.0, sigma = 3.0);
Ramp_6_6.py:076  |  hoomd.md.integrate.mode_standard(dt = 0.005);
Ramp_6_6.py:080  |  nanoparticles = hoomd.group.type(name = 'Nano_Particles', type = 'NP');
notice(2): Group "Nano_Particles" created containing 4 particles
Ramp_6_6.py:081  |  mesogens = hoomd.group.rigid_center();
notice(2): Group "rigid_center" created containing 1000 particles
notice(2): Group "NP_Mes" created containing 1004 particles
Ramp_6_6.py:088  |  npt = hoomd.md.integrate.npt(group = groupNP_mes, kT = temp, tau = 2.0, tauP = 3.0, P = p_max);
Ramp_6_6.py:097  |  log = hoomd.analyze.log(filename = log_file,
                         quantities = ['num_particles',
                                     'ndof',
                                     'translational_ndof',
                                     'rotational_ndof',
                                     'potential_energy',
                                     'kinetic_energy',
                                     'translational_kinetic_energy',
                                     'rotational_kinetic_energy',
                                     'temperature',
                                     'pressure',
                                      'volume'],
                         period = 1e3,
                         overwrite = True);
Ramp_6_6.py:113  |                 group = hoomd.group.all(),
Ramp_6_6.py:111  |  gsd = hoomd.dump.gsd(gsd_file,
               period = 1e3,
               group = hoomd.group.all(),
               overwrite = True); 
Ramp_6_6.py:115  |  meso_gsd = hoomd.dump.gsd(meso_gsd_file,
               period = 1e3,
               group = groupNP_mes,
               overwrite = True); 
Ramp_6_6.py:126  |  hoomd.run(steps_ramp)
notice(2): -- Neighborlist exclusion statistics -- :
notice(2): Particles with 0 exclusions             : 9004
notice(2): Neighbors included by diameter          : no
notice(2): Neighbors excluded when in the same body: yes
** starting run **
Time 00:00:10 | Step 1054201 / 1099000 | TPS 504.234 | ETA 00:01:28
Time 00:00:20 | Step 1061101 / 1099000 | TPS 675.345 | ETA 00:00:56
Time 00:00:30 | Step 1066801 / 1099000 | TPS 566.96 | ETA 00:00:56
Time 00:00:41 | Step 1071901 / 1099000 | TPS 494.761 | ETA 00:00:54
Time 00:00:51 | Step 1075801 / 1099000 | TPS 381.565 | ETA 00:01:00
Time 00:01:01 | Step 1079701 / 1099000 | TPS 381.859 | ETA 00:00:50
Time 00:01:11 | Step 1086001 / 1099000 | TPS 609.001 | ETA 00:00:21
Time 00:01:22 | Step 1092301 / 1099000 | TPS 617.835 | ETA 00:00:10
Time 00:01:32 | Step 1098901 / 1099000 | TPS 640.686 | ETA 00:00:00
Time 00:01:32 | Step 1099000 / 1099000 | TPS 2512.24 | ETA 00:00:00
Average TPS: 542.24
---------
-- Neighborlist stats:
0 normal updates / 168 forced updates / 0 dangerous updates
n_neigh_min: 0 / n_neigh_max: 0 / n_neigh_avg: 0
shortest rebuild period: 100
** run complete **
[33mWARNING: Skipping user bind, non existent bind point (file) in container: '/usr/bin/nvidia-smi'
[0m[33mWARNING: Skipping user bind, non existent bind point (file) in container: '/usr/bin/nvidia-debugdump'
[0m[33mWARNING: Skipping user bind, non existent bind point (file) in container: '/usr/bin/nvidia-persistenced'
[0m[33mWARNING: Skipping user bind, non existent bind point (file) in container: '/usr/bin/nvidia-cuda-mps-control'
[0m[33mWARNING: Skipping user bind, non existent bind point (file) in container: '/usr/bin/nvidia-cuda-mps-server'
[0mHOOMD-blue 2.3.5 CUDA (8.0) DOUBLE HPMC_MIXED TBB SSE SSE2 
Compiled: 10/08/18
Copyright 2009-2018 The Regents of the University of Michigan.
-----
You are using HOOMD-blue. Please cite the following:
* J A Anderson, C D Lorenz, and A Travesset. "General purpose molecular dynamics
  simulations fully implemented on graphics processing units", Journal of
  Computational Physics 227 (2008) 5342--5359
* J Glaser, T D Nguyen, J A Anderson, P Liu, F Spiga, J A Millan, D C Morse, and
  S C Glotzer. "Strong scaling of general-purpose molecular dynamics simulations
  on GPUs", Computer Physics Communications 192 (2015) 97--107
-----
notice(2): This system is not compute exclusive, using local rank to select GPUs
HOOMD-blue is running on the following GPU(s):
 [0]            Tesla K20m  13 SM_3.5 @ 0.706 GHz, 4743 MiB DRAM
Ramp_6_8.py:044  |  system = hoomd.init.read_gsd(ramp_file, frame = -1);
notice(2): Group "all" created containing 1004 particles
Ramp_6_8.py:048  |  rigid = hoomd.md.constrain.rigid();
notice(2): constrain.rigid(): Creating 1000 rigid bodies (adding 8000 particles)
Ramp_6_8.py:060  |  nl = hoomd.md.nlist.tree();
-----
You are using tree neighbor lists. Please cite the following:
* M P Howard, J A Anderson, A Nikoubashman, S C Glotzer, and A Z
  Panagiotopoulos. "Efficient neighbor list calculation for molecular simulation
  of colloidal systems using graphics processing units", Computer Physics
  Communications 203 (2016) 45--52
-----
Ramp_6_8.py:062  |  lj = hoomd.md.pair.lj(r_cut = 3.5, nlist = nl)
Ramp_6_8.py:063  |  lj.set_params(mode = 'shift')
Ramp_6_8.py:067  |  lj.pair_coeff.set('NP','NP', epsilon = 1.0, sigma = 5.0);
Ramp_6_8.py:068  |  lj.pair_coeff.set('M' ,'M' , epsilon = 1.0, sigma = 1.0);
Ramp_6_8.py:069  |  lj.pair_coeff.set('A' ,'A' , epsilon = 1.0, sigma = 1.0);
Ramp_6_8.py:070  |  lj.pair_coeff.set('M' ,'A' , epsilon = 1.0, sigma = 1.0);
Ramp_6_8.py:071  |  lj.pair_coeff.set('NP','M' , epsilon = 1.0, sigma = 3.0);
Ramp_6_8.py:072  |  lj.pair_coeff.set('NP','A' , epsilon = 1.0, sigma = 3.0);
Ramp_6_8.py:076  |  hoomd.md.integrate.mode_standard(dt = 0.005);
Ramp_6_8.py:080  |  nanoparticles = hoomd.group.type(name = 'Nano_Particles', type = 'NP');
notice(2): Group "Nano_Particles" created containing 4 particles
Ramp_6_8.py:081  |  mesogens = hoomd.group.rigid_center();
notice(2): Group "rigid_center" created containing 1000 particles
notice(2): Group "NP_Mes" created containing 1004 particles
Ramp_6_8.py:088  |  npt = hoomd.md.integrate.npt(group = groupNP_mes, kT = temp, tau = 2.0, tauP = 3.0, P = p_max);
Ramp_6_8.py:097  |  log = hoomd.analyze.log(filename = log_file,
                         quantities = ['num_particles',
                                     'ndof',
                                     'translational_ndof',
                                     'rotational_ndof',
                                     'potential_energy',
                                     'kinetic_energy',
                                     'translational_kinetic_energy',
                                     'rotational_kinetic_energy',
                                     'temperature',
                                     'pressure',
                                      'volume'],
                         period = 1e3,
                         overwrite = True);
Ramp_6_8.py:113  |                 group = hoomd.group.all(),
Ramp_6_8.py:111  |  gsd = hoomd.dump.gsd(gsd_file,
               period = 1e3,
               group = hoomd.group.all(),
               overwrite = True); 
Ramp_6_8.py:115  |  meso_gsd = hoomd.dump.gsd(meso_gsd_file,
               period = 1e3,
               group = groupNP_mes,
               overwrite = True); 
Ramp_6_8.py:126  |  hoomd.run(steps_ramp)
notice(2): -- Neighborlist exclusion statistics -- :
notice(2): Particles with 0 exclusions             : 9004
notice(2): Neighbors included by diameter          : no
notice(2): Neighbors excluded when in the same body: yes
** starting run **
Time 00:00:10 | Step 1103101 / 1148000 | TPS 497.287 | ETA 00:01:30
Time 00:00:20 | Step 1110001 / 1148000 | TPS 675.564 | ETA 00:00:56
Time 00:00:30 | Step 1115701 / 1148000 | TPS 566.834 | ETA 00:00:56
Time 00:00:41 | Step 1120801 / 1148000 | TPS 494.951 | ETA 00:00:54
Time 00:00:51 | Step 1124701 / 1148000 | TPS 381.538 | ETA 00:01:01
Time 00:01:01 | Step 1128601 / 1148000 | TPS 381.838 | ETA 00:00:50
Time 00:01:11 | Step 1134901 / 1148000 | TPS 609.673 | ETA 00:00:21
Time 00:01:21 | Step 1141201 / 1148000 | TPS 617.767 | ETA 00:00:11
Time 00:01:32 | Step 1147801 / 1148000 | TPS 641.137 | ETA 00:00:00
Time 00:01:32 | Step 1148000 / 1148000 | TPS 2500.35 | ETA 00:00:00
Average TPS: 542.464
---------
-- Neighborlist stats:
0 normal updates / 168 forced updates / 0 dangerous updates
n_neigh_min: 0 / n_neigh_max: 0 / n_neigh_avg: 0
shortest rebuild period: 100
** run complete **
[33mWARNING: Skipping user bind, non existent bind point (file) in container: '/usr/bin/nvidia-smi'
[0m[33mWARNING: Skipping user bind, non existent bind point (file) in container: '/usr/bin/nvidia-debugdump'
[0m[33mWARNING: Skipping user bind, non existent bind point (file) in container: '/usr/bin/nvidia-persistenced'
[0m[33mWARNING: Skipping user bind, non existent bind point (file) in container: '/usr/bin/nvidia-cuda-mps-control'
[0m[33mWARNING: Skipping user bind, non existent bind point (file) in container: '/usr/bin/nvidia-cuda-mps-server'
[0mHOOMD-blue 2.3.5 CUDA (8.0) DOUBLE HPMC_MIXED TBB SSE SSE2 
Compiled: 10/08/18
Copyright 2009-2018 The Regents of the University of Michigan.
-----
You are using HOOMD-blue. Please cite the following:
* J A Anderson, C D Lorenz, and A Travesset. "General purpose molecular dynamics
  simulations fully implemented on graphics processing units", Journal of
  Computational Physics 227 (2008) 5342--5359
* J Glaser, T D Nguyen, J A Anderson, P Liu, F Spiga, J A Millan, D C Morse, and
  S C Glotzer. "Strong scaling of general-purpose molecular dynamics simulations
  on GPUs", Computer Physics Communications 192 (2015) 97--107
-----
notice(2): This system is not compute exclusive, using local rank to select GPUs
HOOMD-blue is running on the following GPU(s):
 [0]            Tesla K20m  13 SM_3.5 @ 0.706 GHz, 4743 MiB DRAM
Ramp_7_0.py:044  |  system = hoomd.init.read_gsd(ramp_file, frame = -1);
notice(2): Group "all" created containing 1004 particles
Ramp_7_0.py:048  |  rigid = hoomd.md.constrain.rigid();
notice(2): constrain.rigid(): Creating 1000 rigid bodies (adding 8000 particles)
Ramp_7_0.py:060  |  nl = hoomd.md.nlist.tree();
-----
You are using tree neighbor lists. Please cite the following:
* M P Howard, J A Anderson, A Nikoubashman, S C Glotzer, and A Z
  Panagiotopoulos. "Efficient neighbor list calculation for molecular simulation
  of colloidal systems using graphics processing units", Computer Physics
  Communications 203 (2016) 45--52
-----
Ramp_7_0.py:062  |  lj = hoomd.md.pair.lj(r_cut = 3.5, nlist = nl)
Ramp_7_0.py:063  |  lj.set_params(mode = 'shift')
Ramp_7_0.py:067  |  lj.pair_coeff.set('NP','NP', epsilon = 1.0, sigma = 5.0);
Ramp_7_0.py:068  |  lj.pair_coeff.set('M' ,'M' , epsilon = 1.0, sigma = 1.0);
Ramp_7_0.py:069  |  lj.pair_coeff.set('A' ,'A' , epsilon = 1.0, sigma = 1.0);
Ramp_7_0.py:070  |  lj.pair_coeff.set('M' ,'A' , epsilon = 1.0, sigma = 1.0);
Ramp_7_0.py:071  |  lj.pair_coeff.set('NP','M' , epsilon = 1.0, sigma = 3.0);
Ramp_7_0.py:072  |  lj.pair_coeff.set('NP','A' , epsilon = 1.0, sigma = 3.0);
Ramp_7_0.py:076  |  hoomd.md.integrate.mode_standard(dt = 0.005);
Ramp_7_0.py:080  |  nanoparticles = hoomd.group.type(name = 'Nano_Particles', type = 'NP');
notice(2): Group "Nano_Particles" created containing 4 particles
Ramp_7_0.py:081  |  mesogens = hoomd.group.rigid_center();
notice(2): Group "rigid_center" created containing 1000 particles
notice(2): Group "NP_Mes" created containing 1004 particles
Ramp_7_0.py:088  |  npt = hoomd.md.integrate.npt(group = groupNP_mes, kT = temp, tau = 2.0, tauP = 3.0, P = p_max);
Ramp_7_0.py:097  |  log = hoomd.analyze.log(filename = log_file,
                         quantities = ['num_particles',
                                     'ndof',
                                     'translational_ndof',
                                     'rotational_ndof',
                                     'potential_energy',
                                     'kinetic_energy',
                                     'translational_kinetic_energy',
                                     'rotational_kinetic_energy',
                                     'temperature',
                                     'pressure',
                                      'volume'],
                         period = 1e3,
                         overwrite = True);
Ramp_7_0.py:113  |                 group = hoomd.group.all(),
Ramp_7_0.py:111  |  gsd = hoomd.dump.gsd(gsd_file,
               period = 1e3,
               group = hoomd.group.all(),
               overwrite = True); 
Ramp_7_0.py:115  |  meso_gsd = hoomd.dump.gsd(meso_gsd_file,
               period = 1e3,
               group = groupNP_mes,
               overwrite = True); 
Ramp_7_0.py:126  |  hoomd.run(steps_ramp)
notice(2): -- Neighborlist exclusion statistics -- :
notice(2): Particles with 0 exclusions             : 9004
notice(2): Neighbors included by diameter          : no
notice(2): Neighbors excluded when in the same body: yes
** starting run **
Time 00:00:10 | Step 1152259 / 1197000 | TPS 525.899 | ETA 00:01:25
Time 00:00:20 | Step 1158901 / 1197000 | TPS 658.127 | ETA 00:00:57
Time 00:00:30 | Step 1164601 / 1197000 | TPS 567.251 | ETA 00:00:57
Time 00:00:40 | Step 1169736 / 1197000 | TPS 513.481 | ETA 00:00:53
Time 00:00:50 | Step 1173601 / 1197000 | TPS 379.21 | ETA 00:01:01
Time 00:01:00 | Step 1177501 / 1197000 | TPS 381.554 | ETA 00:00:51
Time 00:01:10 | Step 1183501 / 1197000 | TPS 591.544 | ETA 00:00:22
Time 00:01:21 | Step 1189801 / 1197000 | TPS 618.21 | ETA 00:00:11
Time 00:01:31 | Step 1196200 / 1197000 | TPS 639.894 | ETA 00:00:01
Time 00:01:32 | Step 1197000 / 1197000 | TPS 841.41 | ETA 00:00:00
Average TPS: 544.429
---------
-- Neighborlist stats:
0 normal updates / 167 forced updates / 0 dangerous updates
n_neigh_min: 0 / n_neigh_max: 0 / n_neigh_avg: 0
shortest rebuild period: 100
** run complete **
