[33mWARNING: Skipping user bind, non existent bind point (file) in container: '/usr/bin/nvidia-smi'
[0m[33mWARNING: Skipping user bind, non existent bind point (file) in container: '/usr/bin/nvidia-debugdump'
[0m[33mWARNING: Skipping user bind, non existent bind point (file) in container: '/usr/bin/nvidia-persistenced'
[0m[33mWARNING: Skipping user bind, non existent bind point (file) in container: '/usr/bin/nvidia-cuda-mps-control'
[0m[33mWARNING: Skipping user bind, non existent bind point (file) in container: '/usr/bin/nvidia-cuda-mps-server'
[0mHOOMD-blue 2.3.5 CUDA (8.0) DOUBLE HPMC_MIXED TBB SSE SSE2 
Compiled: 10/08/18
Copyright 2009-2018 The Regents of the University of Michigan.
-----
You are using HOOMD-blue. Please cite the following:
* J A Anderson, C D Lorenz, and A Travesset. "General purpose molecular dynamics
  simulations fully implemented on graphics processing units", Journal of
  Computational Physics 227 (2008) 5342--5359
* J Glaser, T D Nguyen, J A Anderson, P Liu, F Spiga, J A Millan, D C Morse, and
  S C Glotzer. "Strong scaling of general-purpose molecular dynamics simulations
  on GPUs", Computer Physics Communications 192 (2015) 97--107
-----
notice(2): This system is not compute exclusive, using local rank to select GPUs
HOOMD-blue is running on the following GPU(s):
 [0]            Tesla K20m  13 SM_3.5 @ 0.706 GHz, 4743 MiB DRAM
Ramp_7_0.py:044  |  system = hoomd.init.read_gsd(ramp_file, frame = -1);
notice(2): Group "all" created containing 1004 particles
Ramp_7_0.py:048  |  rigid = hoomd.md.constrain.rigid();
notice(2): constrain.rigid(): Creating 1000 rigid bodies (adding 8000 particles)
Ramp_7_0.py:060  |  nl = hoomd.md.nlist.tree();
-----
You are using tree neighbor lists. Please cite the following:
* M P Howard, J A Anderson, A Nikoubashman, S C Glotzer, and A Z
  Panagiotopoulos. "Efficient neighbor list calculation for molecular simulation
  of colloidal systems using graphics processing units", Computer Physics
  Communications 203 (2016) 45--52
-----
Ramp_7_0.py:062  |  lj = hoomd.md.pair.lj(r_cut = 3.5, nlist = nl)
Ramp_7_0.py:063  |  lj.set_params(mode = 'shift')
Ramp_7_0.py:067  |  lj.pair_coeff.set('NP','NP', epsilon = 1.0, sigma = 5.0);
Ramp_7_0.py:068  |  lj.pair_coeff.set('M' ,'M' , epsilon = 1.0, sigma = 1.0);
Ramp_7_0.py:069  |  lj.pair_coeff.set('A' ,'A' , epsilon = 1.0, sigma = 1.0);
Ramp_7_0.py:070  |  lj.pair_coeff.set('M' ,'A' , epsilon = 1.0, sigma = 1.0);
Ramp_7_0.py:071  |  lj.pair_coeff.set('NP','M' , epsilon = 1.0, sigma = 3.0);
Ramp_7_0.py:072  |  lj.pair_coeff.set('NP','A' , epsilon = 1.0, sigma = 3.0);
Ramp_7_0.py:076  |  hoomd.md.integrate.mode_standard(dt = 0.005);
Ramp_7_0.py:080  |  nanoparticles = hoomd.group.type(name = 'Nano_Particles', type = 'NP');
notice(2): Group "Nano_Particles" created containing 4 particles
Ramp_7_0.py:081  |  mesogens = hoomd.group.rigid_center();
notice(2): Group "rigid_center" created containing 1000 particles
notice(2): Group "NP_Mes" created containing 1004 particles
Ramp_7_0.py:088  |  npt = hoomd.md.integrate.npt(group = groupNP_mes, kT = temp, tau = 5.0, tauP = 5.0, P = p_max);
Ramp_7_0.py:097  |  log = hoomd.analyze.log(filename = log_file,
                         quantities = ['num_particles',
                                     'ndof',
                                     'translational_ndof',
                                     'rotational_ndof',
                                     'potential_energy',
                                     'kinetic_energy',
                                     'translational_kinetic_energy',
                                     'rotational_kinetic_energy',
                                     'temperature',
                                     'pressure',
                                      'volume'],
                         period = 1e3,
                         overwrite = True);
Ramp_7_0.py:113  |                 group = hoomd.group.all(),
Ramp_7_0.py:111  |  gsd = hoomd.dump.gsd(gsd_file,
               period = 1e3,
               group = hoomd.group.all(),
               overwrite = True); 
Ramp_7_0.py:115  |  meso_gsd = hoomd.dump.gsd(meso_gsd_file,
               period = 1e3,
               group = groupNP_mes,
               overwrite = True); 
Ramp_7_0.py:126  |  hoomd.run(steps_ramp)
notice(2): -- Neighborlist exclusion statistics -- :
notice(2): Particles with 0 exclusions             : 9004
notice(2): Neighbors included by diameter          : no
notice(2): Neighbors excluded when in the same body: yes
** starting run **
Time 00:00:10 | Step 1148886 / 1197000 | TPS 188.493 | ETA 00:04:15
Time 00:00:20 | Step 1150966 / 1197000 | TPS 207.828 | ETA 00:03:41
Time 00:00:30 | Step 1153062 / 1197000 | TPS 209.577 | ETA 00:03:29
Time 00:00:40 | Step 1155172 / 1197000 | TPS 210.996 | ETA 00:03:18
Time 00:00:50 | Step 1157258 / 1197000 | TPS 208.434 | ETA 00:03:10
Time 00:01:00 | Step 1159402 / 1197000 | TPS 214.385 | ETA 00:02:55
Time 00:01:10 | Step 1161524 / 1197000 | TPS 212.011 | ETA 00:02:47
Time 00:01:20 | Step 1163649 / 1197000 | TPS 212.477 | ETA 00:02:36
Time 00:01:30 | Step 1165755 / 1197000 | TPS 210.403 | ETA 00:02:28
Time 00:01:40 | Step 1167847 / 1197000 | TPS 209.152 | ETA 00:02:19
Time 00:01:50 | Step 1169923 / 1197000 | TPS 207.537 | ETA 00:02:10
Time 00:02:00 | Step 1172002 / 1197000 | TPS 207.707 | ETA 00:02:00
Time 00:02:10 | Step 1174106 / 1197000 | TPS 210.336 | ETA 00:01:48
Time 00:02:20 | Step 1176183 / 1197000 | TPS 207.571 | ETA 00:01:40
Time 00:02:30 | Step 1178320 / 1197000 | TPS 213.609 | ETA 00:01:27
Time 00:02:40 | Step 1180394 / 1197000 | TPS 207.398 | ETA 00:01:20
Time 00:02:50 | Step 1182485 / 1197000 | TPS 209.021 | ETA 00:01:09
Time 00:03:00 | Step 1184638 / 1197000 | TPS 215.299 | ETA 00:00:57
Time 00:03:10 | Step 1186748 / 1197000 | TPS 210.895 | ETA 00:00:48
Time 00:03:20 | Step 1188818 / 1197000 | TPS 207 | ETA 00:00:39
Time 00:03:30 | Step 1190905 / 1197000 | TPS 208.598 | ETA 00:00:29
Time 00:03:40 | Step 1193026 / 1197000 | TPS 211.981 | ETA 00:00:18
Time 00:03:50 | Step 1195126 / 1197000 | TPS 209.973 | ETA 00:00:08
Time 00:03:59 | Step 1197000 / 1197000 | TPS 206.416 | ETA 00:00:00
Average TPS: 209.055
---------
-- Neighborlist stats:
22886 normal updates / 167 forced updates / 0 dangerous updates
n_neigh_min: 52 / n_neigh_max: 199 / n_neigh_avg: 157.39
shortest rebuild period: 1
** run complete **
