[33mWARNING: Skipping user bind, non existent bind point (file) in container: '/usr/bin/nvidia-smi'
[0m[33mWARNING: Skipping user bind, non existent bind point (file) in container: '/usr/bin/nvidia-debugdump'
[0m[33mWARNING: Skipping user bind, non existent bind point (file) in container: '/usr/bin/nvidia-persistenced'
[0m[33mWARNING: Skipping user bind, non existent bind point (file) in container: '/usr/bin/nvidia-cuda-mps-control'
[0m[33mWARNING: Skipping user bind, non existent bind point (file) in container: '/usr/bin/nvidia-cuda-mps-server'
[0mHOOMD-blue 2.3.5 CUDA (8.0) DOUBLE HPMC_MIXED TBB SSE SSE2 
Compiled: 10/08/18
Copyright 2009-2018 The Regents of the University of Michigan.
-----
You are using HOOMD-blue. Please cite the following:
* J A Anderson, C D Lorenz, and A Travesset. "General purpose molecular dynamics
  simulations fully implemented on graphics processing units", Journal of
  Computational Physics 227 (2008) 5342--5359
* J Glaser, T D Nguyen, J A Anderson, P Liu, F Spiga, J A Millan, D C Morse, and
  S C Glotzer. "Strong scaling of general-purpose molecular dynamics simulations
  on GPUs", Computer Physics Communications 192 (2015) 97--107
-----
notice(2): This system is not compute exclusive, using local rank to select GPUs
HOOMD-blue is running on the following GPU(s):
 [0]            Tesla K20m  13 SM_3.5 @ 0.706 GHz, 4743 MiB DRAM
Equilibrium_52.py:045  |  system = hoomd.init.read_gsd(ramp_file,frame = -1)
notice(2): Group "all" created containing 1004 particles
Equilibrium_52.py:049  |  rigid = hoomd.md.constrain.rigid();
notice(2): constrain.rigid(): Creating 1000 rigid bodies (adding 8000 particles)
Equilibrium_52.py:061  |  nl = hoomd.md.nlist.tree()
-----
You are using tree neighbor lists. Please cite the following:
* M P Howard, J A Anderson, A Nikoubashman, S C Glotzer, and A Z
  Panagiotopoulos. "Efficient neighbor list calculation for molecular simulation
  of colloidal systems using graphics processing units", Computer Physics
  Communications 203 (2016) 45--52
-----
Equilibrium_52.py:063  |  lj = hoomd.md.pair.lj(r_cut = 3.5, nlist=nl)
Equilibrium_52.py:064  |  lj.set_params(mode='shift')
Equilibrium_52.py:068  |  lj.pair_coeff.set('NP','NP', epsilon = 1.0, sigma = 5.0);
Equilibrium_52.py:069  |  lj.pair_coeff.set('M' ,'M' , epsilon = 1.0, sigma = 1.0);
Equilibrium_52.py:070  |  lj.pair_coeff.set('A' ,'A' , epsilon = 1.0, sigma = 1.0);
Equilibrium_52.py:071  |  lj.pair_coeff.set('M' ,'A' , epsilon = 1.0, sigma = 1.0);
Equilibrium_52.py:072  |  lj.pair_coeff.set('NP','M' , epsilon = 1.0, sigma = 3.0);
Equilibrium_52.py:073  |  lj.pair_coeff.set('NP','A' , epsilon = 1.0, sigma = 3.0);
Equilibrium_52.py:077  |  hoomd.md.integrate.mode_standard(dt = 0.005);
Equilibrium_52.py:081  |  nanoparticles = hoomd.group.type(name = 'Nano_Particles', type = 'NP');
notice(2): Group "Nano_Particles" created containing 4 particles
Equilibrium_52.py:082  |  mesogens = hoomd.group.rigid_center();
notice(2): Group "rigid_center" created containing 1000 particles
notice(2): Group "NP_Mes" created containing 1004 particles
Equilibrium_52.py:087  |  npt = hoomd.md.integrate.npt(group = groupNP_mes, kT = temp, tau = 10.0, tauP = 10.0, P = pressure);
Equilibrium_52.py:094  |  log = hoomd.analyze.log(filename = log_file,
                         quantities = ['num_particles',
                                     'ndof',
                                     'translational_ndof',
                                     'rotational_ndof',
                                     'potential_energy',
                                     'kinetic_energy',
                                     'translational_kinetic_energy',
                                     'rotational_kinetic_energy',
                                     'temperature',
                                     'pressure',
                                      'volume'],
                         period = 1e3,
                         overwrite = True);
Equilibrium_52.py:110  |                 group = hoomd.group.all(),
Equilibrium_52.py:108  |  gsd = hoomd.dump.gsd(gsd_file,
               period = 1e3,
               group = hoomd.group.all(),
               overwrite=True); 
Equilibrium_52.py:112  |  meso_gsd = hoomd.dump.gsd(meso_gsd_file,
               period = 1e3,
               group = mesogens,
               overwrite=True); 
Equilibrium_52.py:123  |  hoomd.run(steps)
notice(2): -- Neighborlist exclusion statistics -- :
notice(2): Particles with 0 exclusions             : 9004
notice(2): Neighbors included by diameter          : no
notice(2): Neighbors excluded when in the same body: yes
** starting run **
Time 00:00:10 | Step 463326 / 561000 | TPS 232.52 | ETA 00:07:00
Time 00:00:20 | Step 465901 / 561000 | TPS 257.227 | ETA 00:06:09
Time 00:00:30 | Step 468508 / 561000 | TPS 260.567 | ETA 00:05:54
Time 00:00:40 | Step 471080 / 561000 | TPS 257.189 | ETA 00:05:49
Time 00:00:50 | Step 473652 / 561000 | TPS 257.126 | ETA 00:05:39
Time 00:01:00 | Step 476248 / 561000 | TPS 259.426 | ETA 00:05:26
Time 00:01:10 | Step 478810 / 561000 | TPS 256.161 | ETA 00:05:20
Time 00:01:20 | Step 481375 / 561000 | TPS 256.313 | ETA 00:05:10
Time 00:01:30 | Step 483968 / 561000 | TPS 259.045 | ETA 00:04:57
Time 00:01:40 | Step 486505 / 561000 | TPS 253.66 | ETA 00:04:53
Time 00:01:50 | Step 489086 / 561000 | TPS 257.968 | ETA 00:04:38
Time 00:02:00 | Step 491635 / 561000 | TPS 254.889 | ETA 00:04:32
Time 00:02:10 | Step 494201 / 561000 | TPS 256.48 | ETA 00:04:20
Time 00:02:20 | Step 496737 / 561000 | TPS 253.596 | ETA 00:04:13
Time 00:02:30 | Step 499284 / 561000 | TPS 254.602 | ETA 00:04:02
Time 00:02:40 | Step 501860 / 561000 | TPS 257.462 | ETA 00:03:49
Time 00:02:50 | Step 504450 / 561000 | TPS 258.985 | ETA 00:03:38
Time 00:03:00 | Step 507018 / 561000 | TPS 256.751 | ETA 00:03:30
Time 00:03:10 | Step 509589 / 561000 | TPS 256.867 | ETA 00:03:20
Time 00:03:20 | Step 512192 / 561000 | TPS 260.287 | ETA 00:03:07
Time 00:03:30 | Step 514813 / 561000 | TPS 261.873 | ETA 00:02:56
Time 00:03:40 | Step 517388 / 561000 | TPS 257.488 | ETA 00:02:49
Time 00:03:50 | Step 519955 / 561000 | TPS 256.698 | ETA 00:02:39
Time 00:04:00 | Step 522566 / 561000 | TPS 261.087 | ETA 00:02:27
Time 00:04:10 | Step 525161 / 561000 | TPS 259.285 | ETA 00:02:18
Time 00:04:20 | Step 527726 / 561000 | TPS 256.392 | ETA 00:02:09
Time 00:04:30 | Step 530365 / 561000 | TPS 263.706 | ETA 00:01:56
Time 00:04:40 | Step 532971 / 561000 | TPS 260.418 | ETA 00:01:47
Time 00:04:50 | Step 535591 / 561000 | TPS 261.954 | ETA 00:01:36
Time 00:05:00 | Step 538216 / 561000 | TPS 262.485 | ETA 00:01:26
Time 00:05:10 | Step 540815 / 561000 | TPS 259.801 | ETA 00:01:17
Time 00:05:20 | Step 543428 / 561000 | TPS 261.094 | ETA 00:01:07
Time 00:05:30 | Step 546055 / 561000 | TPS 262.589 | ETA 00:00:56
Time 00:05:40 | Step 548704 / 561000 | TPS 264.855 | ETA 00:00:46
Time 00:05:50 | Step 551343 / 561000 | TPS 263.844 | ETA 00:00:36
Time 00:06:00 | Step 553966 / 561000 | TPS 262.283 | ETA 00:00:26
Time 00:06:10 | Step 556575 / 561000 | TPS 260.656 | ETA 00:00:16
Time 00:06:20 | Step 559152 / 561000 | TPS 257.462 | ETA 00:00:07
Time 00:06:27 | Step 561000 / 561000 | TPS 250.176 | ETA 00:00:00
Average TPS: 258.034
---------
-- Neighborlist stats:
35077 normal updates / 334 forced updates / 0 dangerous updates
n_neigh_min: 49 / n_neigh_max: 212 / n_neigh_avg: 167.019
shortest rebuild period: 2
** run complete **
[33mWARNING: Skipping user bind, non existent bind point (file) in container: '/usr/bin/nvidia-smi'
[0m[33mWARNING: Skipping user bind, non existent bind point (file) in container: '/usr/bin/nvidia-debugdump'
[0m[33mWARNING: Skipping user bind, non existent bind point (file) in container: '/usr/bin/nvidia-persistenced'
[0m[33mWARNING: Skipping user bind, non existent bind point (file) in container: '/usr/bin/nvidia-cuda-mps-control'
[0m[33mWARNING: Skipping user bind, non existent bind point (file) in container: '/usr/bin/nvidia-cuda-mps-server'
[0mHOOMD-blue 2.3.5 CUDA (8.0) DOUBLE HPMC_MIXED TBB SSE SSE2 
Compiled: 10/08/18
Copyright 2009-2018 The Regents of the University of Michigan.
-----
You are using HOOMD-blue. Please cite the following:
* J A Anderson, C D Lorenz, and A Travesset. "General purpose molecular dynamics
  simulations fully implemented on graphics processing units", Journal of
  Computational Physics 227 (2008) 5342--5359
* J Glaser, T D Nguyen, J A Anderson, P Liu, F Spiga, J A Millan, D C Morse, and
  S C Glotzer. "Strong scaling of general-purpose molecular dynamics simulations
  on GPUs", Computer Physics Communications 192 (2015) 97--107
-----
notice(2): This system is not compute exclusive, using local rank to select GPUs
HOOMD-blue is running on the following GPU(s):
 [0]            Tesla K20m  13 SM_3.5 @ 0.706 GHz, 4743 MiB DRAM
Equilibrium_54.py:045  |  system = hoomd.init.read_gsd(ramp_file,frame = -1)
notice(2): Group "all" created containing 1004 particles
Equilibrium_54.py:049  |  rigid = hoomd.md.constrain.rigid();
notice(2): constrain.rigid(): Creating 1000 rigid bodies (adding 8000 particles)
Equilibrium_54.py:061  |  nl = hoomd.md.nlist.tree()
-----
You are using tree neighbor lists. Please cite the following:
* M P Howard, J A Anderson, A Nikoubashman, S C Glotzer, and A Z
  Panagiotopoulos. "Efficient neighbor list calculation for molecular simulation
  of colloidal systems using graphics processing units", Computer Physics
  Communications 203 (2016) 45--52
-----
Equilibrium_54.py:063  |  lj = hoomd.md.pair.lj(r_cut = 3.5, nlist=nl)
Equilibrium_54.py:064  |  lj.set_params(mode='shift')
Equilibrium_54.py:068  |  lj.pair_coeff.set('NP','NP', epsilon = 1.0, sigma = 5.0);
Equilibrium_54.py:069  |  lj.pair_coeff.set('M' ,'M' , epsilon = 1.0, sigma = 1.0);
Equilibrium_54.py:070  |  lj.pair_coeff.set('A' ,'A' , epsilon = 1.0, sigma = 1.0);
Equilibrium_54.py:071  |  lj.pair_coeff.set('M' ,'A' , epsilon = 1.0, sigma = 1.0);
Equilibrium_54.py:072  |  lj.pair_coeff.set('NP','M' , epsilon = 1.0, sigma = 3.0);
Equilibrium_54.py:073  |  lj.pair_coeff.set('NP','A' , epsilon = 1.0, sigma = 3.0);
Equilibrium_54.py:077  |  hoomd.md.integrate.mode_standard(dt = 0.005);
Equilibrium_54.py:081  |  nanoparticles = hoomd.group.type(name = 'Nano_Particles', type = 'NP');
notice(2): Group "Nano_Particles" created containing 4 particles
Equilibrium_54.py:082  |  mesogens = hoomd.group.rigid_center();
notice(2): Group "rigid_center" created containing 1000 particles
notice(2): Group "NP_Mes" created containing 1004 particles
Equilibrium_54.py:087  |  npt = hoomd.md.integrate.npt(group = groupNP_mes, kT = temp, tau = 10.0, tauP = 10.0, P = pressure);
Equilibrium_54.py:094  |  log = hoomd.analyze.log(filename = log_file,
                         quantities = ['num_particles',
                                     'ndof',
                                     'translational_ndof',
                                     'rotational_ndof',
                                     'potential_energy',
                                     'kinetic_energy',
                                     'translational_kinetic_energy',
                                     'rotational_kinetic_energy',
                                     'temperature',
                                     'pressure',
                                      'volume'],
                         period = 1e3,
                         overwrite = True);
Equilibrium_54.py:110  |                 group = hoomd.group.all(),
Equilibrium_54.py:108  |  gsd = hoomd.dump.gsd(gsd_file,
               period = 1e3,
               group = hoomd.group.all(),
               overwrite=True); 
Equilibrium_54.py:112  |  meso_gsd = hoomd.dump.gsd(meso_gsd_file,
               period = 1e3,
               group = mesogens,
               overwrite=True); 
Equilibrium_54.py:123  |  hoomd.run(steps)
notice(2): -- Neighborlist exclusion statistics -- :
notice(2): Particles with 0 exclusions             : 9004
notice(2): Neighbors included by diameter          : no
notice(2): Neighbors excluded when in the same body: yes
** starting run **
Time 00:00:10 | Step 512306 / 610000 | TPS 230.583 | ETA 00:07:03
Time 00:00:20 | Step 514898 / 610000 | TPS 259.185 | ETA 00:06:06
Time 00:00:30 | Step 517496 / 610000 | TPS 259.78 | ETA 00:05:56
Time 00:00:40 | Step 520103 / 610000 | TPS 260.556 | ETA 00:05:45
Time 00:00:50 | Step 522651 / 610000 | TPS 254.676 | ETA 00:05:42
Time 00:01:00 | Step 525195 / 610000 | TPS 254.211 | ETA 00:05:33
Time 00:01:10 | Step 527808 / 610000 | TPS 261.169 | ETA 00:05:14
Time 00:01:20 | Step 530396 / 610000 | TPS 258.645 | ETA 00:05:07
Time 00:01:30 | Step 532986 / 610000 | TPS 258.985 | ETA 00:04:57
Time 00:01:40 | Step 535541 / 610000 | TPS 255.326 | ETA 00:04:51
Time 00:01:50 | Step 538136 / 610000 | TPS 259.268 | ETA 00:04:37
Time 00:02:00 | Step 540765 / 610000 | TPS 262.801 | ETA 00:04:23
Time 00:02:10 | Step 543349 / 610000 | TPS 258.267 | ETA 00:04:18
Time 00:02:20 | Step 545912 / 610000 | TPS 256.285 | ETA 00:04:10
Time 00:02:30 | Step 548457 / 610000 | TPS 254.442 | ETA 00:04:01
Time 00:02:40 | Step 551013 / 610000 | TPS 255.587 | ETA 00:03:50
Time 00:02:50 | Step 553592 / 610000 | TPS 257.673 | ETA 00:03:38
Time 00:03:00 | Step 556222 / 610000 | TPS 262.866 | ETA 00:03:24
Time 00:03:10 | Step 558811 / 610000 | TPS 258.815 | ETA 00:03:17
Time 00:03:20 | Step 561435 / 610000 | TPS 262.386 | ETA 00:03:05
Time 00:03:30 | Step 564027 / 610000 | TPS 258.996 | ETA 00:02:57
Time 00:03:40 | Step 566617 / 610000 | TPS 258.78 | ETA 00:02:47
Time 00:03:50 | Step 569192 / 610000 | TPS 257.43 | ETA 00:02:38
Time 00:04:00 | Step 571797 / 610000 | TPS 260.344 | ETA 00:02:26
Time 00:04:10 | Step 574417 / 610000 | TPS 261.984 | ETA 00:02:15
Time 00:04:20 | Step 577000 / 610000 | TPS 258.29 | ETA 00:02:07
Time 00:04:30 | Step 579651 / 610000 | TPS 265.066 | ETA 00:01:54
Time 00:04:40 | Step 582289 / 610000 | TPS 263.566 | ETA 00:01:45
Time 00:04:50 | Step 584879 / 610000 | TPS 258.84 | ETA 00:01:37
Time 00:05:00 | Step 587466 / 610000 | TPS 258.491 | ETA 00:01:27
Time 00:05:10 | Step 590090 / 610000 | TPS 262.285 | ETA 00:01:15
Time 00:05:20 | Step 592684 / 610000 | TPS 259.2 | ETA 00:01:06
Time 00:05:30 | Step 595263 / 610000 | TPS 257.682 | ETA 00:00:57
Time 00:05:40 | Step 597869 / 610000 | TPS 260.582 | ETA 00:00:46
Time 00:05:50 | Step 600489 / 610000 | TPS 261.8 | ETA 00:00:36
Time 00:06:00 | Step 603098 / 610000 | TPS 260.83 | ETA 00:00:26
Time 00:06:10 | Step 605746 / 610000 | TPS 264.678 | ETA 00:00:16
Time 00:06:20 | Step 608385 / 610000 | TPS 263.719 | ETA 00:00:06
Time 00:06:26 | Step 610000 / 610000 | TPS 266.907 | ETA 00:00:00
Average TPS: 258.919
---------
-- Neighborlist stats:
35866 normal updates / 335 forced updates / 0 dangerous updates
n_neigh_min: 41 / n_neigh_max: 195 / n_neigh_avg: 156.642
shortest rebuild period: 2
** run complete **
[33mWARNING: Skipping user bind, non existent bind point (file) in container: '/usr/bin/nvidia-smi'
[0m[33mWARNING: Skipping user bind, non existent bind point (file) in container: '/usr/bin/nvidia-debugdump'
[0m[33mWARNING: Skipping user bind, non existent bind point (file) in container: '/usr/bin/nvidia-persistenced'
[0m[33mWARNING: Skipping user bind, non existent bind point (file) in container: '/usr/bin/nvidia-cuda-mps-control'
[0m[33mWARNING: Skipping user bind, non existent bind point (file) in container: '/usr/bin/nvidia-cuda-mps-server'
[0mHOOMD-blue 2.3.5 CUDA (8.0) DOUBLE HPMC_MIXED TBB SSE SSE2 
Compiled: 10/08/18
Copyright 2009-2018 The Regents of the University of Michigan.
-----
You are using HOOMD-blue. Please cite the following:
* J A Anderson, C D Lorenz, and A Travesset. "General purpose molecular dynamics
  simulations fully implemented on graphics processing units", Journal of
  Computational Physics 227 (2008) 5342--5359
* J Glaser, T D Nguyen, J A Anderson, P Liu, F Spiga, J A Millan, D C Morse, and
  S C Glotzer. "Strong scaling of general-purpose molecular dynamics simulations
  on GPUs", Computer Physics Communications 192 (2015) 97--107
-----
notice(2): This system is not compute exclusive, using local rank to select GPUs
HOOMD-blue is running on the following GPU(s):
 [0]            Tesla K20m  13 SM_3.5 @ 0.706 GHz, 4743 MiB DRAM
Equilibrium_56.py:045  |  system = hoomd.init.read_gsd(ramp_file,frame = -1)
notice(2): Group "all" created containing 1004 particles
Equilibrium_56.py:049  |  rigid = hoomd.md.constrain.rigid();
notice(2): constrain.rigid(): Creating 1000 rigid bodies (adding 8000 particles)
Equilibrium_56.py:061  |  nl = hoomd.md.nlist.tree()
-----
You are using tree neighbor lists. Please cite the following:
* M P Howard, J A Anderson, A Nikoubashman, S C Glotzer, and A Z
  Panagiotopoulos. "Efficient neighbor list calculation for molecular simulation
  of colloidal systems using graphics processing units", Computer Physics
  Communications 203 (2016) 45--52
-----
Equilibrium_56.py:063  |  lj = hoomd.md.pair.lj(r_cut = 3.5, nlist=nl)
Equilibrium_56.py:064  |  lj.set_params(mode='shift')
Equilibrium_56.py:068  |  lj.pair_coeff.set('NP','NP', epsilon = 1.0, sigma = 5.0);
Equilibrium_56.py:069  |  lj.pair_coeff.set('M' ,'M' , epsilon = 1.0, sigma = 1.0);
Equilibrium_56.py:070  |  lj.pair_coeff.set('A' ,'A' , epsilon = 1.0, sigma = 1.0);
Equilibrium_56.py:071  |  lj.pair_coeff.set('M' ,'A' , epsilon = 1.0, sigma = 1.0);
Equilibrium_56.py:072  |  lj.pair_coeff.set('NP','M' , epsilon = 1.0, sigma = 3.0);
Equilibrium_56.py:073  |  lj.pair_coeff.set('NP','A' , epsilon = 1.0, sigma = 3.0);
Equilibrium_56.py:077  |  hoomd.md.integrate.mode_standard(dt = 0.005);
Equilibrium_56.py:081  |  nanoparticles = hoomd.group.type(name = 'Nano_Particles', type = 'NP');
notice(2): Group "Nano_Particles" created containing 4 particles
Equilibrium_56.py:082  |  mesogens = hoomd.group.rigid_center();
notice(2): Group "rigid_center" created containing 1000 particles
notice(2): Group "NP_Mes" created containing 1004 particles
Equilibrium_56.py:087  |  npt = hoomd.md.integrate.npt(group = groupNP_mes, kT = temp, tau = 10.0, tauP = 10.0, P = pressure);
Equilibrium_56.py:094  |  log = hoomd.analyze.log(filename = log_file,
                         quantities = ['num_particles',
                                     'ndof',
                                     'translational_ndof',
                                     'rotational_ndof',
                                     'potential_energy',
                                     'kinetic_energy',
                                     'translational_kinetic_energy',
                                     'rotational_kinetic_energy',
                                     'temperature',
                                     'pressure',
                                      'volume'],
                         period = 1e3,
                         overwrite = True);
Equilibrium_56.py:110  |                 group = hoomd.group.all(),
Equilibrium_56.py:108  |  gsd = hoomd.dump.gsd(gsd_file,
               period = 1e3,
               group = hoomd.group.all(),
               overwrite=True); 
Equilibrium_56.py:112  |  meso_gsd = hoomd.dump.gsd(meso_gsd_file,
               period = 1e3,
               group = mesogens,
               overwrite=True); 
Equilibrium_56.py:123  |  hoomd.run(steps)
notice(2): -- Neighborlist exclusion statistics -- :
notice(2): Particles with 0 exclusions             : 9004
notice(2): Neighbors included by diameter          : no
notice(2): Neighbors excluded when in the same body: yes
** starting run **
Time 00:00:10 | Step 561370 / 659000 | TPS 236.798 | ETA 00:06:52
Time 00:00:20 | Step 564044 / 659000 | TPS 267.214 | ETA 00:05:55
Time 00:00:30 | Step 566643 / 659000 | TPS 259.707 | ETA 00:05:55
Time 00:00:40 | Step 569277 / 659000 | TPS 263.253 | ETA 00:05:40
Time 00:00:50 | Step 571878 / 659000 | TPS 259.926 | ETA 00:05:35
Time 00:01:00 | Step 574542 / 659000 | TPS 266.391 | ETA 00:05:17
Time 00:01:10 | Step 577148 / 659000 | TPS 260.512 | ETA 00:05:14
Time 00:01:20 | Step 579762 / 659000 | TPS 261.195 | ETA 00:05:03
Time 00:01:30 | Step 582348 / 659000 | TPS 258.537 | ETA 00:04:56
Time 00:01:40 | Step 584947 / 659000 | TPS 259.811 | ETA 00:04:45
Time 00:01:50 | Step 587527 / 659000 | TPS 257.987 | ETA 00:04:37
Time 00:02:00 | Step 590117 / 659000 | TPS 258.981 | ETA 00:04:25
Time 00:02:10 | Step 592695 / 659000 | TPS 257.706 | ETA 00:04:17
Time 00:02:20 | Step 595303 / 659000 | TPS 260.767 | ETA 00:04:04
Time 00:02:30 | Step 597930 / 659000 | TPS 262.666 | ETA 00:03:52
Time 00:02:40 | Step 600573 / 659000 | TPS 264.123 | ETA 00:03:41
Time 00:02:50 | Step 603213 / 659000 | TPS 263.943 | ETA 00:03:31
Time 00:03:00 | Step 605783 / 659000 | TPS 256.852 | ETA 00:03:27
Time 00:03:10 | Step 608389 / 659000 | TPS 260.557 | ETA 00:03:14
Time 00:03:20 | Step 611048 / 659000 | TPS 265.689 | ETA 00:03:00
Time 00:03:30 | Step 613600 / 659000 | TPS 255.116 | ETA 00:02:57
Time 00:03:40 | Step 616201 / 659000 | TPS 260.024 | ETA 00:02:44
Time 00:03:50 | Step 618862 / 659000 | TPS 265.943 | ETA 00:02:30
Time 00:04:00 | Step 621488 / 659000 | TPS 262.585 | ETA 00:02:22
Time 00:04:10 | Step 624081 / 659000 | TPS 259.239 | ETA 00:02:14
Time 00:04:20 | Step 626668 / 659000 | TPS 258.572 | ETA 00:02:05
Time 00:04:30 | Step 629226 / 659000 | TPS 255.576 | ETA 00:01:56
Time 00:04:40 | Step 631856 / 659000 | TPS 262.923 | ETA 00:01:43
Time 00:04:50 | Step 634446 / 659000 | TPS 258.983 | ETA 00:01:34
Time 00:05:00 | Step 637015 / 659000 | TPS 256.88 | ETA 00:01:25
Time 00:05:10 | Step 639588 / 659000 | TPS 257.197 | ETA 00:01:15
Time 00:05:20 | Step 642180 / 659000 | TPS 259.047 | ETA 00:01:04
Time 00:05:30 | Step 644830 / 659000 | TPS 264.946 | ETA 00:00:53
Time 00:05:40 | Step 647472 / 659000 | TPS 264.12 | ETA 00:00:43
Time 00:05:50 | Step 650107 / 659000 | TPS 263.488 | ETA 00:00:33
Time 00:06:00 | Step 652759 / 659000 | TPS 265.192 | ETA 00:00:23
Time 00:06:10 | Step 655390 / 659000 | TPS 263.058 | ETA 00:00:13
Time 00:06:20 | Step 658032 / 659000 | TPS 263.998 | ETA 00:00:03
Time 00:06:24 | Step 659000 / 659000 | TPS 258.684 | ETA 00:00:00
Average TPS: 260.495
---------
-- Neighborlist stats:
36894 normal updates / 334 forced updates / 0 dangerous updates
n_neigh_min: 43 / n_neigh_max: 188 / n_neigh_avg: 148.218
shortest rebuild period: 2
** run complete **
[33mWARNING: Skipping user bind, non existent bind point (file) in container: '/usr/bin/nvidia-smi'
[0m[33mWARNING: Skipping user bind, non existent bind point (file) in container: '/usr/bin/nvidia-debugdump'
[0m[33mWARNING: Skipping user bind, non existent bind point (file) in container: '/usr/bin/nvidia-persistenced'
[0m[33mWARNING: Skipping user bind, non existent bind point (file) in container: '/usr/bin/nvidia-cuda-mps-control'
[0m[33mWARNING: Skipping user bind, non existent bind point (file) in container: '/usr/bin/nvidia-cuda-mps-server'
[0mHOOMD-blue 2.3.5 CUDA (8.0) DOUBLE HPMC_MIXED TBB SSE SSE2 
Compiled: 10/08/18
Copyright 2009-2018 The Regents of the University of Michigan.
-----
You are using HOOMD-blue. Please cite the following:
* J A Anderson, C D Lorenz, and A Travesset. "General purpose molecular dynamics
  simulations fully implemented on graphics processing units", Journal of
  Computational Physics 227 (2008) 5342--5359
* J Glaser, T D Nguyen, J A Anderson, P Liu, F Spiga, J A Millan, D C Morse, and
  S C Glotzer. "Strong scaling of general-purpose molecular dynamics simulations
  on GPUs", Computer Physics Communications 192 (2015) 97--107
-----
notice(2): This system is not compute exclusive, using local rank to select GPUs
HOOMD-blue is running on the following GPU(s):
 [0]            Tesla K20m  13 SM_3.5 @ 0.706 GHz, 4743 MiB DRAM
Equilibrium_58.py:045  |  system = hoomd.init.read_gsd(ramp_file,frame = -1)
notice(2): Group "all" created containing 1004 particles
Equilibrium_58.py:049  |  rigid = hoomd.md.constrain.rigid();
notice(2): constrain.rigid(): Creating 1000 rigid bodies (adding 8000 particles)
Equilibrium_58.py:061  |  nl = hoomd.md.nlist.tree()
-----
You are using tree neighbor lists. Please cite the following:
* M P Howard, J A Anderson, A Nikoubashman, S C Glotzer, and A Z
  Panagiotopoulos. "Efficient neighbor list calculation for molecular simulation
  of colloidal systems using graphics processing units", Computer Physics
  Communications 203 (2016) 45--52
-----
Equilibrium_58.py:063  |  lj = hoomd.md.pair.lj(r_cut = 3.5, nlist=nl)
Equilibrium_58.py:064  |  lj.set_params(mode='shift')
Equilibrium_58.py:068  |  lj.pair_coeff.set('NP','NP', epsilon = 1.0, sigma = 5.0);
Equilibrium_58.py:069  |  lj.pair_coeff.set('M' ,'M' , epsilon = 1.0, sigma = 1.0);
Equilibrium_58.py:070  |  lj.pair_coeff.set('A' ,'A' , epsilon = 1.0, sigma = 1.0);
Equilibrium_58.py:071  |  lj.pair_coeff.set('M' ,'A' , epsilon = 1.0, sigma = 1.0);
Equilibrium_58.py:072  |  lj.pair_coeff.set('NP','M' , epsilon = 1.0, sigma = 3.0);
Equilibrium_58.py:073  |  lj.pair_coeff.set('NP','A' , epsilon = 1.0, sigma = 3.0);
Equilibrium_58.py:077  |  hoomd.md.integrate.mode_standard(dt = 0.005);
Equilibrium_58.py:081  |  nanoparticles = hoomd.group.type(name = 'Nano_Particles', type = 'NP');
notice(2): Group "Nano_Particles" created containing 4 particles
Equilibrium_58.py:082  |  mesogens = hoomd.group.rigid_center();
notice(2): Group "rigid_center" created containing 1000 particles
notice(2): Group "NP_Mes" created containing 1004 particles
Equilibrium_58.py:087  |  npt = hoomd.md.integrate.npt(group = groupNP_mes, kT = temp, tau = 10.0, tauP = 10.0, P = pressure);
Equilibrium_58.py:094  |  log = hoomd.analyze.log(filename = log_file,
                         quantities = ['num_particles',
                                     'ndof',
                                     'translational_ndof',
                                     'rotational_ndof',
                                     'potential_energy',
                                     'kinetic_energy',
                                     'translational_kinetic_energy',
                                     'rotational_kinetic_energy',
                                     'temperature',
                                     'pressure',
                                      'volume'],
                         period = 1e3,
                         overwrite = True);
Equilibrium_58.py:110  |                 group = hoomd.group.all(),
Equilibrium_58.py:108  |  gsd = hoomd.dump.gsd(gsd_file,
               period = 1e3,
               group = hoomd.group.all(),
               overwrite=True); 
Equilibrium_58.py:112  |  meso_gsd = hoomd.dump.gsd(meso_gsd_file,
               period = 1e3,
               group = mesogens,
               overwrite=True); 
Equilibrium_58.py:123  |  hoomd.run(steps)
notice(2): -- Neighborlist exclusion statistics -- :
notice(2): Particles with 0 exclusions             : 9004
notice(2): Neighbors included by diameter          : no
notice(2): Neighbors excluded when in the same body: yes
** starting run **
Time 00:00:10 | Step 610377 / 708000 | TPS 237.531 | ETA 00:06:50
Time 00:00:20 | Step 612965 / 708000 | TPS 258.586 | ETA 00:06:07
Time 00:00:30 | Step 615516 / 708000 | TPS 254.878 | ETA 00:06:02
Time 00:00:40 | Step 618074 / 708000 | TPS 255.582 | ETA 00:05:51
Time 00:00:50 | Step 620733 / 708000 | TPS 265.68 | ETA 00:05:28
Time 00:01:00 | Step 623347 / 708000 | TPS 261.369 | ETA 00:05:23
Time 00:01:10 | Step 625901 / 708000 | TPS 255.374 | ETA 00:05:21
Time 00:01:20 | Step 628443 / 708000 | TPS 254.099 | ETA 00:05:13
Time 00:01:30 | Step 631008 / 708000 | TPS 256.358 | ETA 00:05:00
Time 00:01:40 | Step 633568 / 708000 | TPS 255.838 | ETA 00:04:50
Time 00:01:50 | Step 636188 / 708000 | TPS 261.987 | ETA 00:04:34
Time 00:02:00 | Step 638788 / 708000 | TPS 259.789 | ETA 00:04:26
Time 00:02:10 | Step 641407 / 708000 | TPS 261.863 | ETA 00:04:14
Time 00:02:20 | Step 644047 / 708000 | TPS 263.799 | ETA 00:04:02
Time 00:02:30 | Step 646684 / 708000 | TPS 263.583 | ETA 00:03:52
Time 00:02:40 | Step 649331 / 708000 | TPS 264.664 | ETA 00:03:41
Time 00:02:50 | Step 651960 / 708000 | TPS 262.83 | ETA 00:03:33
Time 00:03:00 | Step 654583 / 708000 | TPS 262.214 | ETA 00:03:23
Time 00:03:10 | Step 657155 / 708000 | TPS 257.15 | ETA 00:03:17
Time 00:03:20 | Step 659738 / 708000 | TPS 258.181 | ETA 00:03:06
Time 00:03:30 | Step 662325 / 708000 | TPS 258.678 | ETA 00:02:56
Time 00:03:40 | Step 664975 / 708000 | TPS 264.932 | ETA 00:02:42
Time 00:03:50 | Step 667569 / 708000 | TPS 259.385 | ETA 00:02:35
Time 00:04:00 | Step 670201 / 708000 | TPS 263.096 | ETA 00:02:23
Time 00:04:10 | Step 672786 / 708000 | TPS 258.337 | ETA 00:02:16
Time 00:04:20 | Step 675347 / 708000 | TPS 255.89 | ETA 00:02:07
Time 00:04:30 | Step 677928 / 708000 | TPS 258.085 | ETA 00:01:56
Time 00:04:40 | Step 680541 / 708000 | TPS 261.219 | ETA 00:01:45
Time 00:04:50 | Step 683190 / 708000 | TPS 264.765 | ETA 00:01:33
Time 00:05:00 | Step 685800 / 708000 | TPS 260.868 | ETA 00:01:25
Time 00:05:10 | Step 688364 / 708000 | TPS 256.394 | ETA 00:01:16
Time 00:05:20 | Step 690950 / 708000 | TPS 258.473 | ETA 00:01:05
Time 00:05:30 | Step 693558 / 708000 | TPS 260.635 | ETA 00:00:55
Time 00:05:40 | Step 696197 / 708000 | TPS 263.722 | ETA 00:00:44
Time 00:05:50 | Step 698804 / 708000 | TPS 260.676 | ETA 00:00:35
Time 00:06:00 | Step 701388 / 708000 | TPS 258.304 | ETA 00:00:25
Time 00:06:10 | Step 703974 / 708000 | TPS 258.455 | ETA 00:00:15
Time 00:06:20 | Step 706632 / 708000 | TPS 265.781 | ETA 00:00:05
Time 00:06:25 | Step 708000 / 708000 | TPS 259.499 | ETA 00:00:00
Average TPS: 259.449
---------
-- Neighborlist stats:
38102 normal updates / 334 forced updates / 0 dangerous updates
n_neigh_min: 44 / n_neigh_max: 186 / n_neigh_avg: 147.711
shortest rebuild period: 2
** run complete **
[33mWARNING: Skipping user bind, non existent bind point (file) in container: '/usr/bin/nvidia-smi'
[0m[33mWARNING: Skipping user bind, non existent bind point (file) in container: '/usr/bin/nvidia-debugdump'
[0m[33mWARNING: Skipping user bind, non existent bind point (file) in container: '/usr/bin/nvidia-persistenced'
[0m[33mWARNING: Skipping user bind, non existent bind point (file) in container: '/usr/bin/nvidia-cuda-mps-control'
[0m[33mWARNING: Skipping user bind, non existent bind point (file) in container: '/usr/bin/nvidia-cuda-mps-server'
[0mHOOMD-blue 2.3.5 CUDA (8.0) DOUBLE HPMC_MIXED TBB SSE SSE2 
Compiled: 10/08/18
Copyright 2009-2018 The Regents of the University of Michigan.
-----
You are using HOOMD-blue. Please cite the following:
* J A Anderson, C D Lorenz, and A Travesset. "General purpose molecular dynamics
  simulations fully implemented on graphics processing units", Journal of
  Computational Physics 227 (2008) 5342--5359
* J Glaser, T D Nguyen, J A Anderson, P Liu, F Spiga, J A Millan, D C Morse, and
  S C Glotzer. "Strong scaling of general-purpose molecular dynamics simulations
  on GPUs", Computer Physics Communications 192 (2015) 97--107
-----
notice(2): This system is not compute exclusive, using local rank to select GPUs
HOOMD-blue is running on the following GPU(s):
 [0]            Tesla K20m  13 SM_3.5 @ 0.706 GHz, 4743 MiB DRAM
Equilibrium_62.py:045  |  system = hoomd.init.read_gsd(ramp_file,frame = -1)
notice(2): Group "all" created containing 1004 particles
Equilibrium_62.py:049  |  rigid = hoomd.md.constrain.rigid();
notice(2): constrain.rigid(): Creating 1000 rigid bodies (adding 8000 particles)
Equilibrium_62.py:061  |  nl = hoomd.md.nlist.tree()
-----
You are using tree neighbor lists. Please cite the following:
* M P Howard, J A Anderson, A Nikoubashman, S C Glotzer, and A Z
  Panagiotopoulos. "Efficient neighbor list calculation for molecular simulation
  of colloidal systems using graphics processing units", Computer Physics
  Communications 203 (2016) 45--52
-----
Equilibrium_62.py:063  |  lj = hoomd.md.pair.lj(r_cut = 3.5, nlist=nl)
Equilibrium_62.py:064  |  lj.set_params(mode='shift')
Equilibrium_62.py:068  |  lj.pair_coeff.set('NP','NP', epsilon = 1.0, sigma = 5.0);
Equilibrium_62.py:069  |  lj.pair_coeff.set('M' ,'M' , epsilon = 1.0, sigma = 1.0);
Equilibrium_62.py:070  |  lj.pair_coeff.set('A' ,'A' , epsilon = 1.0, sigma = 1.0);
Equilibrium_62.py:071  |  lj.pair_coeff.set('M' ,'A' , epsilon = 1.0, sigma = 1.0);
Equilibrium_62.py:072  |  lj.pair_coeff.set('NP','M' , epsilon = 1.0, sigma = 3.0);
Equilibrium_62.py:073  |  lj.pair_coeff.set('NP','A' , epsilon = 1.0, sigma = 3.0);
Equilibrium_62.py:077  |  hoomd.md.integrate.mode_standard(dt = 0.005);
Equilibrium_62.py:081  |  nanoparticles = hoomd.group.type(name = 'Nano_Particles', type = 'NP');
notice(2): Group "Nano_Particles" created containing 4 particles
Equilibrium_62.py:082  |  mesogens = hoomd.group.rigid_center();
notice(2): Group "rigid_center" created containing 1000 particles
notice(2): Group "NP_Mes" created containing 1004 particles
Equilibrium_62.py:087  |  npt = hoomd.md.integrate.npt(group = groupNP_mes, kT = temp, tau = 15.0, tauP = 15.0, P = pressure);
Equilibrium_62.py:094  |  log = hoomd.analyze.log(filename = log_file,
                         quantities = ['num_particles',
                                     'ndof',
                                     'translational_ndof',
                                     'rotational_ndof',
                                     'potential_energy',
                                     'kinetic_energy',
                                     'translational_kinetic_energy',
                                     'rotational_kinetic_energy',
                                     'temperature',
                                     'pressure',
                                      'volume'],
                         period = 1e3,
                         overwrite = True);
Equilibrium_62.py:110  |                 group = hoomd.group.all(),
Equilibrium_62.py:108  |  gsd = hoomd.dump.gsd(gsd_file,
               period = 1e3,
               group = hoomd.group.all(),
               overwrite=True); 
Equilibrium_62.py:112  |  meso_gsd = hoomd.dump.gsd(meso_gsd_file,
               period = 1e3,
               group = mesogens,
               overwrite=True); 
Equilibrium_62.py:123  |  hoomd.run(steps)
notice(2): -- Neighborlist exclusion statistics -- :
notice(2): Particles with 0 exclusions             : 9004
notice(2): Neighbors included by diameter          : no
notice(2): Neighbors excluded when in the same body: yes
** starting run **
Time 00:00:10 | Step 708354 / 806000 | TPS 235.352 | ETA 00:06:54
Time 00:00:20 | Step 710909 / 806000 | TPS 255.41 | ETA 00:06:12
Time 00:00:30 | Step 713477 / 806000 | TPS 256.795 | ETA 00:06:00
Time 00:00:40 | Step 716047 / 806000 | TPS 256.951 | ETA 00:05:50
Time 00:00:50 | Step 718651 / 806000 | TPS 260.324 | ETA 00:05:35
Time 00:01:00 | Step 721240 / 806000 | TPS 258.751 | ETA 00:05:27
Time 00:01:10 | Step 723792 / 806000 | TPS 255.189 | ETA 00:05:22
Time 00:01:20 | Step 726410 / 806000 | TPS 261.731 | ETA 00:05:04
Time 00:01:30 | Step 729012 / 806000 | TPS 260.061 | ETA 00:04:56
Time 00:01:40 | Step 731638 / 806000 | TPS 262.563 | ETA 00:04:43
Time 00:01:50 | Step 734301 / 806000 | TPS 266.283 | ETA 00:04:29
Time 00:02:00 | Step 736956 / 806000 | TPS 265.454 | ETA 00:04:20
Time 00:02:10 | Step 739626 / 806000 | TPS 266.924 | ETA 00:04:08
Time 00:02:20 | Step 742253 / 806000 | TPS 262.528 | ETA 00:04:02
Time 00:02:30 | Step 744830 / 806000 | TPS 257.509 | ETA 00:03:57
Time 00:02:40 | Step 747387 / 806000 | TPS 255.521 | ETA 00:03:49
Time 00:02:50 | Step 749982 / 806000 | TPS 259.479 | ETA 00:03:35
Time 00:03:00 | Step 752589 / 806000 | TPS 260.5 | ETA 00:03:25
Time 00:03:10 | Step 755168 / 806000 | TPS 257.841 | ETA 00:03:17
Time 00:03:20 | Step 757804 / 806000 | TPS 263.513 | ETA 00:03:02
Time 00:03:30 | Step 760465 / 806000 | TPS 265.89 | ETA 00:02:51
Time 00:03:40 | Step 763102 / 806000 | TPS 263.562 | ETA 00:02:42
Time 00:03:50 | Step 765680 / 806000 | TPS 257.742 | ETA 00:02:36
Time 00:04:00 | Step 768292 / 806000 | TPS 261.096 | ETA 00:02:24
Time 00:04:10 | Step 770860 / 806000 | TPS 256.786 | ETA 00:02:16
Time 00:04:20 | Step 773427 / 806000 | TPS 256.577 | ETA 00:02:06
Time 00:04:30 | Step 776102 / 806000 | TPS 267.49 | ETA 00:01:51
Time 00:04:40 | Step 778796 / 806000 | TPS 269.395 | ETA 00:01:40
Time 00:04:50 | Step 781387 / 806000 | TPS 259.097 | ETA 00:01:34
Time 00:05:00 | Step 783999 / 806000 | TPS 261.033 | ETA 00:01:24
Time 00:05:10 | Step 786619 / 806000 | TPS 261.98 | ETA 00:01:13
Time 00:05:20 | Step 789285 / 806000 | TPS 266.46 | ETA 00:01:02
Time 00:05:30 | Step 791897 / 806000 | TPS 260.989 | ETA 00:00:54
Time 00:05:40 | Step 794594 / 806000 | TPS 269.682 | ETA 00:00:42
Time 00:05:50 | Step 797221 / 806000 | TPS 262.536 | ETA 00:00:33
Time 00:06:00 | Step 799839 / 806000 | TPS 261.676 | ETA 00:00:23
Time 00:06:10 | Step 802471 / 806000 | TPS 263.187 | ETA 00:00:13
Time 00:06:20 | Step 805136 / 806000 | TPS 266.341 | ETA 00:00:03
Time 00:06:23 | Step 806000 / 806000 | TPS 260.18 | ETA 00:00:00
Average TPS: 260.789
---------
-- Neighborlist stats:
40960 normal updates / 334 forced updates / 0 dangerous updates
n_neigh_min: 26 / n_neigh_max: 173 / n_neigh_avg: 131.677
shortest rebuild period: 2
** run complete **
[33mWARNING: Skipping user bind, non existent bind point (file) in container: '/usr/bin/nvidia-smi'
[0m[33mWARNING: Skipping user bind, non existent bind point (file) in container: '/usr/bin/nvidia-debugdump'
[0m[33mWARNING: Skipping user bind, non existent bind point (file) in container: '/usr/bin/nvidia-persistenced'
[0m[33mWARNING: Skipping user bind, non existent bind point (file) in container: '/usr/bin/nvidia-cuda-mps-control'
[0m[33mWARNING: Skipping user bind, non existent bind point (file) in container: '/usr/bin/nvidia-cuda-mps-server'
[0mHOOMD-blue 2.3.5 CUDA (8.0) DOUBLE HPMC_MIXED TBB SSE SSE2 
Compiled: 10/08/18
Copyright 2009-2018 The Regents of the University of Michigan.
-----
You are using HOOMD-blue. Please cite the following:
* J A Anderson, C D Lorenz, and A Travesset. "General purpose molecular dynamics
  simulations fully implemented on graphics processing units", Journal of
  Computational Physics 227 (2008) 5342--5359
* J Glaser, T D Nguyen, J A Anderson, P Liu, F Spiga, J A Millan, D C Morse, and
  S C Glotzer. "Strong scaling of general-purpose molecular dynamics simulations
  on GPUs", Computer Physics Communications 192 (2015) 97--107
-----
notice(2): This system is not compute exclusive, using local rank to select GPUs
HOOMD-blue is running on the following GPU(s):
 [0]            Tesla K20m  13 SM_3.5 @ 0.706 GHz, 4743 MiB DRAM
Equilibrium_64.py:045  |  system = hoomd.init.read_gsd(ramp_file,frame = -1)
notice(2): Group "all" created containing 1004 particles
Equilibrium_64.py:049  |  rigid = hoomd.md.constrain.rigid();
notice(2): constrain.rigid(): Creating 1000 rigid bodies (adding 8000 particles)
Equilibrium_64.py:061  |  nl = hoomd.md.nlist.tree()
-----
You are using tree neighbor lists. Please cite the following:
* M P Howard, J A Anderson, A Nikoubashman, S C Glotzer, and A Z
  Panagiotopoulos. "Efficient neighbor list calculation for molecular simulation
  of colloidal systems using graphics processing units", Computer Physics
  Communications 203 (2016) 45--52
-----
Equilibrium_64.py:063  |  lj = hoomd.md.pair.lj(r_cut = 3.5, nlist=nl)
Equilibrium_64.py:064  |  lj.set_params(mode='shift')
Equilibrium_64.py:068  |  lj.pair_coeff.set('NP','NP', epsilon = 1.0, sigma = 5.0);
Equilibrium_64.py:069  |  lj.pair_coeff.set('M' ,'M' , epsilon = 1.0, sigma = 1.0);
Equilibrium_64.py:070  |  lj.pair_coeff.set('A' ,'A' , epsilon = 1.0, sigma = 1.0);
Equilibrium_64.py:071  |  lj.pair_coeff.set('M' ,'A' , epsilon = 1.0, sigma = 1.0);
Equilibrium_64.py:072  |  lj.pair_coeff.set('NP','M' , epsilon = 1.0, sigma = 3.0);
Equilibrium_64.py:073  |  lj.pair_coeff.set('NP','A' , epsilon = 1.0, sigma = 3.0);
Equilibrium_64.py:077  |  hoomd.md.integrate.mode_standard(dt = 0.005);
Equilibrium_64.py:081  |  nanoparticles = hoomd.group.type(name = 'Nano_Particles', type = 'NP');
notice(2): Group "Nano_Particles" created containing 4 particles
Equilibrium_64.py:082  |  mesogens = hoomd.group.rigid_center();
notice(2): Group "rigid_center" created containing 1000 particles
notice(2): Group "NP_Mes" created containing 1004 particles
Equilibrium_64.py:087  |  npt = hoomd.md.integrate.npt(group = groupNP_mes, kT = temp, tau = 15.0, tauP = 15.0, P = pressure);
Equilibrium_64.py:094  |  log = hoomd.analyze.log(filename = log_file,
                         quantities = ['num_particles',
                                     'ndof',
                                     'translational_ndof',
                                     'rotational_ndof',
                                     'potential_energy',
                                     'kinetic_energy',
                                     'translational_kinetic_energy',
                                     'rotational_kinetic_energy',
                                     'temperature',
                                     'pressure',
                                      'volume'],
                         period = 1e3,
                         overwrite = True);
Equilibrium_64.py:110  |                 group = hoomd.group.all(),
Equilibrium_64.py:108  |  gsd = hoomd.dump.gsd(gsd_file,
               period = 1e3,
               group = hoomd.group.all(),
               overwrite=True); 
Equilibrium_64.py:112  |  meso_gsd = hoomd.dump.gsd(meso_gsd_file,
               period = 1e3,
               group = mesogens,
               overwrite=True); 
Equilibrium_64.py:123  |  hoomd.run(steps)
notice(2): -- Neighborlist exclusion statistics -- :
notice(2): Particles with 0 exclusions             : 9004
notice(2): Neighbors included by diameter          : no
notice(2): Neighbors excluded when in the same body: yes
** starting run **
Time 00:00:10 | Step 757368 / 855000 | TPS 236.746 | ETA 00:06:52
Time 00:00:20 | Step 759942 / 855000 | TPS 257.245 | ETA 00:06:09
Time 00:00:30 | Step 762487 / 855000 | TPS 254.446 | ETA 00:06:03
Time 00:00:40 | Step 765105 / 855000 | TPS 261.788 | ETA 00:05:43
Time 00:00:50 | Step 767709 / 855000 | TPS 260.302 | ETA 00:05:35
Time 00:01:00 | Step 770403 / 855000 | TPS 269.201 | ETA 00:05:14
Time 00:01:10 | Step 773034 / 855000 | TPS 262.952 | ETA 00:05:11
Time 00:01:20 | Step 775734 / 855000 | TPS 269.987 | ETA 00:04:53
Time 00:01:30 | Step 778482 / 855000 | TPS 274.629 | ETA 00:04:38
Time 00:01:40 | Step 781248 / 855000 | TPS 276.402 | ETA 00:04:26
Time 00:01:50 | Step 783962 / 855000 | TPS 271.36 | ETA 00:04:21
Time 00:02:00 | Step 786653 / 855000 | TPS 269.095 | ETA 00:04:13
Time 00:02:10 | Step 789425 / 855000 | TPS 277.193 | ETA 00:03:56
Time 00:02:20 | Step 792197 / 855000 | TPS 277.18 | ETA 00:03:46
Time 00:02:30 | Step 794990 / 855000 | TPS 279.146 | ETA 00:03:34
Time 00:02:40 | Step 797787 / 855000 | TPS 279.527 | ETA 00:03:24
Time 00:02:50 | Step 800617 / 855000 | TPS 282.899 | ETA 00:03:12
Time 00:03:00 | Step 803440 / 855000 | TPS 282.119 | ETA 00:03:02
Time 00:03:10 | Step 806273 / 855000 | TPS 283.241 | ETA 00:02:52
Time 00:03:20 | Step 809074 / 855000 | TPS 279.926 | ETA 00:02:44
Time 00:03:30 | Step 811918 / 855000 | TPS 284.266 | ETA 00:02:31
Time 00:03:40 | Step 814697 / 855000 | TPS 277.819 | ETA 00:02:25
Time 00:03:50 | Step 817477 / 855000 | TPS 277.983 | ETA 00:02:14
Time 00:04:00 | Step 820296 / 855000 | TPS 281.897 | ETA 00:02:03
Time 00:04:10 | Step 823128 / 855000 | TPS 283.035 | ETA 00:01:52
Time 00:04:20 | Step 825909 / 855000 | TPS 277.992 | ETA 00:01:44
Time 00:04:30 | Step 828723 / 855000 | TPS 281.281 | ETA 00:01:33
Time 00:04:40 | Step 831482 / 855000 | TPS 275.82 | ETA 00:01:25
Time 00:04:50 | Step 834269 / 855000 | TPS 278.698 | ETA 00:01:14
Time 00:05:00 | Step 837059 / 855000 | TPS 278.904 | ETA 00:01:04
Time 00:05:10 | Step 839813 / 855000 | TPS 275.323 | ETA 00:00:55
Time 00:05:20 | Step 842566 / 855000 | TPS 275.253 | ETA 00:00:45
Time 00:05:30 | Step 845382 / 855000 | TPS 281.542 | ETA 00:00:34
Time 00:05:40 | Step 848116 / 855000 | TPS 273.278 | ETA 00:00:25
Time 00:05:50 | Step 850842 / 855000 | TPS 272.467 | ETA 00:00:15
Time 00:06:00 | Step 853605 / 855000 | TPS 276.125 | ETA 00:00:05
Time 00:06:05 | Step 855000 / 855000 | TPS 286.477 | ETA 00:00:00
Average TPS: 273.977
---------
-- Neighborlist stats:
42380 normal updates / 334 forced updates / 0 dangerous updates
n_neigh_min: 42 / n_neigh_max: 146 / n_neigh_avg: 110.337
shortest rebuild period: 2
** run complete **
[33mWARNING: Skipping user bind, non existent bind point (file) in container: '/usr/bin/nvidia-smi'
[0m[33mWARNING: Skipping user bind, non existent bind point (file) in container: '/usr/bin/nvidia-debugdump'
[0m[33mWARNING: Skipping user bind, non existent bind point (file) in container: '/usr/bin/nvidia-persistenced'
[0m[33mWARNING: Skipping user bind, non existent bind point (file) in container: '/usr/bin/nvidia-cuda-mps-control'
[0m[33mWARNING: Skipping user bind, non existent bind point (file) in container: '/usr/bin/nvidia-cuda-mps-server'
[0mHOOMD-blue 2.3.5 CUDA (8.0) DOUBLE HPMC_MIXED TBB SSE SSE2 
Compiled: 10/08/18
Copyright 2009-2018 The Regents of the University of Michigan.
-----
You are using HOOMD-blue. Please cite the following:
* J A Anderson, C D Lorenz, and A Travesset. "General purpose molecular dynamics
  simulations fully implemented on graphics processing units", Journal of
  Computational Physics 227 (2008) 5342--5359
* J Glaser, T D Nguyen, J A Anderson, P Liu, F Spiga, J A Millan, D C Morse, and
  S C Glotzer. "Strong scaling of general-purpose molecular dynamics simulations
  on GPUs", Computer Physics Communications 192 (2015) 97--107
-----
notice(2): This system is not compute exclusive, using local rank to select GPUs
HOOMD-blue is running on the following GPU(s):
 [0]            Tesla K20m  13 SM_3.5 @ 0.706 GHz, 4743 MiB DRAM
Equilibrium_66.py:045  |  system = hoomd.init.read_gsd(ramp_file,frame = -1)
notice(2): Group "all" created containing 1004 particles
Equilibrium_66.py:049  |  rigid = hoomd.md.constrain.rigid();
notice(2): constrain.rigid(): Creating 1000 rigid bodies (adding 8000 particles)
Equilibrium_66.py:061  |  nl = hoomd.md.nlist.tree()
-----
You are using tree neighbor lists. Please cite the following:
* M P Howard, J A Anderson, A Nikoubashman, S C Glotzer, and A Z
  Panagiotopoulos. "Efficient neighbor list calculation for molecular simulation
  of colloidal systems using graphics processing units", Computer Physics
  Communications 203 (2016) 45--52
-----
Equilibrium_66.py:063  |  lj = hoomd.md.pair.lj(r_cut = 3.5, nlist=nl)
Equilibrium_66.py:064  |  lj.set_params(mode='shift')
Equilibrium_66.py:068  |  lj.pair_coeff.set('NP','NP', epsilon = 1.0, sigma = 5.0);
Equilibrium_66.py:069  |  lj.pair_coeff.set('M' ,'M' , epsilon = 1.0, sigma = 1.0);
Equilibrium_66.py:070  |  lj.pair_coeff.set('A' ,'A' , epsilon = 1.0, sigma = 1.0);
Equilibrium_66.py:071  |  lj.pair_coeff.set('M' ,'A' , epsilon = 1.0, sigma = 1.0);
Equilibrium_66.py:072  |  lj.pair_coeff.set('NP','M' , epsilon = 1.0, sigma = 3.0);
Equilibrium_66.py:073  |  lj.pair_coeff.set('NP','A' , epsilon = 1.0, sigma = 3.0);
Equilibrium_66.py:077  |  hoomd.md.integrate.mode_standard(dt = 0.005);
Equilibrium_66.py:081  |  nanoparticles = hoomd.group.type(name = 'Nano_Particles', type = 'NP');
notice(2): Group "Nano_Particles" created containing 4 particles
Equilibrium_66.py:082  |  mesogens = hoomd.group.rigid_center();
notice(2): Group "rigid_center" created containing 1000 particles
notice(2): Group "NP_Mes" created containing 1004 particles
Equilibrium_66.py:087  |  npt = hoomd.md.integrate.npt(group = groupNP_mes, kT = temp, tau = 15.0, tauP = 15.0, P = pressure);
Equilibrium_66.py:094  |  log = hoomd.analyze.log(filename = log_file,
                         quantities = ['num_particles',
                                     'ndof',
                                     'translational_ndof',
                                     'rotational_ndof',
                                     'potential_energy',
                                     'kinetic_energy',
                                     'translational_kinetic_energy',
                                     'rotational_kinetic_energy',
                                     'temperature',
                                     'pressure',
                                      'volume'],
                         period = 1e3,
                         overwrite = True);
Equilibrium_66.py:110  |                 group = hoomd.group.all(),
Equilibrium_66.py:108  |  gsd = hoomd.dump.gsd(gsd_file,
               period = 1e3,
               group = hoomd.group.all(),
               overwrite=True); 
Equilibrium_66.py:112  |  meso_gsd = hoomd.dump.gsd(meso_gsd_file,
               period = 1e3,
               group = mesogens,
               overwrite=True); 
Equilibrium_66.py:123  |  hoomd.run(steps)
notice(2): -- Neighborlist exclusion statistics -- :
notice(2): Particles with 0 exclusions             : 9004
notice(2): Neighbors included by diameter          : no
notice(2): Neighbors excluded when in the same body: yes
** starting run **
Time 00:00:10 | Step 806583 / 904000 | TPS 258.269 | ETA 00:06:17
Time 00:00:20 | Step 809247 / 904000 | TPS 266.356 | ETA 00:05:55
Time 00:00:30 | Step 811883 / 904000 | TPS 263.544 | ETA 00:05:49
Time 00:00:40 | Step 814560 / 904000 | TPS 267.686 | ETA 00:05:34
Time 00:00:50 | Step 817236 / 904000 | TPS 267.573 | ETA 00:05:24
Time 00:01:00 | Step 819953 / 904000 | TPS 271.575 | ETA 00:05:09
Time 00:01:10 | Step 822726 / 904000 | TPS 277.129 | ETA 00:04:53
Time 00:01:20 | Step 825600 / 904000 | TPS 287.198 | ETA 00:04:32
Time 00:01:30 | Step 828438 / 904000 | TPS 283.706 | ETA 00:04:26
Time 00:01:40 | Step 831266 / 904000 | TPS 282.764 | ETA 00:04:17
Time 00:01:50 | Step 833966 / 904000 | TPS 269.935 | ETA 00:04:19
Time 00:02:00 | Step 836688 / 904000 | TPS 272.119 | ETA 00:04:07
Time 00:02:10 | Step 839381 / 904000 | TPS 269.116 | ETA 00:04:00
Time 00:02:20 | Step 842103 / 904000 | TPS 272.049 | ETA 00:03:47
Time 00:02:30 | Step 844803 / 904000 | TPS 269.84 | ETA 00:03:39
Time 00:02:40 | Step 847640 / 904000 | TPS 283.655 | ETA 00:03:18
Time 00:02:50 | Step 850503 / 904000 | TPS 286.17 | ETA 00:03:06
Time 00:03:00 | Step 853379 / 904000 | TPS 287.467 | ETA 00:02:56
Time 00:03:10 | Step 856242 / 904000 | TPS 286.227 | ETA 00:02:46
Time 00:03:20 | Step 858930 / 904000 | TPS 268.73 | ETA 00:02:47
Time 00:03:30 | Step 861573 / 904000 | TPS 264.27 | ETA 00:02:40
Time 00:03:40 | Step 864222 / 904000 | TPS 264.869 | ETA 00:02:30
Time 00:03:50 | Step 866954 / 904000 | TPS 273.178 | ETA 00:02:15
Time 00:04:00 | Step 869731 / 904000 | TPS 277.693 | ETA 00:02:03
Time 00:04:10 | Step 872539 / 904000 | TPS 280.623 | ETA 00:01:52
Time 00:04:20 | Step 875374 / 904000 | TPS 283.425 | ETA 00:01:41
Time 00:04:30 | Step 878176 / 904000 | TPS 280.188 | ETA 00:01:32
Time 00:04:40 | Step 880964 / 904000 | TPS 278.657 | ETA 00:01:22
Time 00:04:50 | Step 883716 / 904000 | TPS 275.018 | ETA 00:01:13
Time 00:05:00 | Step 886441 / 904000 | TPS 272.48 | ETA 00:01:04
Time 00:05:10 | Step 889096 / 904000 | TPS 265.42 | ETA 00:00:56
Time 00:05:20 | Step 891779 / 904000 | TPS 268.291 | ETA 00:00:45
Time 00:05:30 | Step 894514 / 904000 | TPS 273.496 | ETA 00:00:34
Time 00:05:40 | Step 897365 / 904000 | TPS 285.007 | ETA 00:00:23
Time 00:05:50 | Step 900168 / 904000 | TPS 280.156 | ETA 00:00:13
Time 00:06:00 | Step 903034 / 904000 | TPS 286.571 | ETA 00:00:03
Time 00:06:03 | Step 904000 / 904000 | TPS 284.64 | ETA 00:00:00
Average TPS: 275.103
---------
-- Neighborlist stats:
43744 normal updates / 335 forced updates / 0 dangerous updates
n_neigh_min: 34 / n_neigh_max: 140 / n_neigh_avg: 109.065
shortest rebuild period: 1
** run complete **
[33mWARNING: Skipping user bind, non existent bind point (file) in container: '/usr/bin/nvidia-smi'
[0m[33mWARNING: Skipping user bind, non existent bind point (file) in container: '/usr/bin/nvidia-debugdump'
[0m[33mWARNING: Skipping user bind, non existent bind point (file) in container: '/usr/bin/nvidia-persistenced'
[0m[33mWARNING: Skipping user bind, non existent bind point (file) in container: '/usr/bin/nvidia-cuda-mps-control'
[0m[33mWARNING: Skipping user bind, non existent bind point (file) in container: '/usr/bin/nvidia-cuda-mps-server'
[0mHOOMD-blue 2.3.5 CUDA (8.0) DOUBLE HPMC_MIXED TBB SSE SSE2 
Compiled: 10/08/18
Copyright 2009-2018 The Regents of the University of Michigan.
-----
You are using HOOMD-blue. Please cite the following:
* J A Anderson, C D Lorenz, and A Travesset. "General purpose molecular dynamics
  simulations fully implemented on graphics processing units", Journal of
  Computational Physics 227 (2008) 5342--5359
* J Glaser, T D Nguyen, J A Anderson, P Liu, F Spiga, J A Millan, D C Morse, and
  S C Glotzer. "Strong scaling of general-purpose molecular dynamics simulations
  on GPUs", Computer Physics Communications 192 (2015) 97--107
-----
notice(2): This system is not compute exclusive, using local rank to select GPUs
HOOMD-blue is running on the following GPU(s):
 [0]            Tesla K20m  13 SM_3.5 @ 0.706 GHz, 4743 MiB DRAM
Equilibrium_68.py:045  |  system = hoomd.init.read_gsd(ramp_file,frame = -1)
notice(2): Group "all" created containing 1004 particles
Equilibrium_68.py:049  |  rigid = hoomd.md.constrain.rigid();
notice(2): constrain.rigid(): Creating 1000 rigid bodies (adding 8000 particles)
Equilibrium_68.py:061  |  nl = hoomd.md.nlist.tree()
-----
You are using tree neighbor lists. Please cite the following:
* M P Howard, J A Anderson, A Nikoubashman, S C Glotzer, and A Z
  Panagiotopoulos. "Efficient neighbor list calculation for molecular simulation
  of colloidal systems using graphics processing units", Computer Physics
  Communications 203 (2016) 45--52
-----
Equilibrium_68.py:063  |  lj = hoomd.md.pair.lj(r_cut = 3.5, nlist=nl)
Equilibrium_68.py:064  |  lj.set_params(mode='shift')
Equilibrium_68.py:068  |  lj.pair_coeff.set('NP','NP', epsilon = 1.0, sigma = 5.0);
Equilibrium_68.py:069  |  lj.pair_coeff.set('M' ,'M' , epsilon = 1.0, sigma = 1.0);
Equilibrium_68.py:070  |  lj.pair_coeff.set('A' ,'A' , epsilon = 1.0, sigma = 1.0);
Equilibrium_68.py:071  |  lj.pair_coeff.set('M' ,'A' , epsilon = 1.0, sigma = 1.0);
Equilibrium_68.py:072  |  lj.pair_coeff.set('NP','M' , epsilon = 1.0, sigma = 3.0);
Equilibrium_68.py:073  |  lj.pair_coeff.set('NP','A' , epsilon = 1.0, sigma = 3.0);
Equilibrium_68.py:077  |  hoomd.md.integrate.mode_standard(dt = 0.005);
Equilibrium_68.py:081  |  nanoparticles = hoomd.group.type(name = 'Nano_Particles', type = 'NP');
notice(2): Group "Nano_Particles" created containing 4 particles
Equilibrium_68.py:082  |  mesogens = hoomd.group.rigid_center();
notice(2): Group "rigid_center" created containing 1000 particles
notice(2): Group "NP_Mes" created containing 1004 particles
Equilibrium_68.py:087  |  npt = hoomd.md.integrate.npt(group = groupNP_mes, kT = temp, tau = 15.0, tauP = 15.0, P = pressure);
Equilibrium_68.py:094  |  log = hoomd.analyze.log(filename = log_file,
                         quantities = ['num_particles',
                                     'ndof',
                                     'translational_ndof',
                                     'rotational_ndof',
                                     'potential_energy',
                                     'kinetic_energy',
                                     'translational_kinetic_energy',
                                     'rotational_kinetic_energy',
                                     'temperature',
                                     'pressure',
                                      'volume'],
                         period = 1e3,
                         overwrite = True);
Equilibrium_68.py:110  |                 group = hoomd.group.all(),
Equilibrium_68.py:108  |  gsd = hoomd.dump.gsd(gsd_file,
               period = 1e3,
               group = hoomd.group.all(),
               overwrite=True); 
Equilibrium_68.py:112  |  meso_gsd = hoomd.dump.gsd(meso_gsd_file,
               period = 1e3,
               group = mesogens,
               overwrite=True); 
Equilibrium_68.py:123  |  hoomd.run(steps)
notice(2): -- Neighborlist exclusion statistics -- :
notice(2): Particles with 0 exclusions             : 9004
notice(2): Neighbors included by diameter          : no
notice(2): Neighbors excluded when in the same body: yes
** starting run **
Time 00:00:10 | Step 855600 / 953000 | TPS 259.99 | ETA 00:06:14
Time 00:00:20 | Step 858277 / 953000 | TPS 267.517 | ETA 00:05:54
Time 00:00:30 | Step 860942 / 953000 | TPS 266.387 | ETA 00:05:45
Time 00:00:40 | Step 863626 / 953000 | TPS 268.24 | ETA 00:05:33
Time 00:00:50 | Step 866359 / 953000 | TPS 273.214 | ETA 00:05:17
Time 00:01:00 | Step 869123 / 953000 | TPS 276.389 | ETA 00:05:03
Time 00:01:10 | Step 871935 / 953000 | TPS 281.045 | ETA 00:04:48
Time 00:01:20 | Step 874743 / 953000 | TPS 280.792 | ETA 00:04:38
Time 00:01:30 | Step 877540 / 953000 | TPS 279.694 | ETA 00:04:29
Time 00:01:40 | Step 880260 / 953000 | TPS 271.895 | ETA 00:04:27
Time 00:01:50 | Step 882973 / 953000 | TPS 271.149 | ETA 00:04:18
Time 00:02:00 | Step 885633 / 953000 | TPS 265.911 | ETA 00:04:13
Time 00:02:10 | Step 888319 / 953000 | TPS 268.6 | ETA 00:04:00
Time 00:02:20 | Step 891062 / 953000 | TPS 274.104 | ETA 00:03:45
Time 00:02:30 | Step 893852 / 953000 | TPS 278.897 | ETA 00:03:32
Time 00:02:40 | Step 896696 / 953000 | TPS 284.21 | ETA 00:03:18
Time 00:02:50 | Step 899544 / 953000 | TPS 284.791 | ETA 00:03:07
Time 00:03:00 | Step 902338 / 953000 | TPS 279.385 | ETA 00:03:01
Time 00:03:10 | Step 905010 / 953000 | TPS 267.148 | ETA 00:02:59
Time 00:03:20 | Step 907676 / 953000 | TPS 266.578 | ETA 00:02:50
Time 00:03:30 | Step 910327 / 953000 | TPS 264.942 | ETA 00:02:41
Time 00:03:40 | Step 912983 / 953000 | TPS 265.472 | ETA 00:02:30
Time 00:03:50 | Step 915719 / 953000 | TPS 273.502 | ETA 00:02:16
Time 00:04:00 | Step 918451 / 953000 | TPS 273.073 | ETA 00:02:06
Time 00:04:10 | Step 921239 / 953000 | TPS 278.757 | ETA 00:01:53
Time 00:04:20 | Step 924069 / 953000 | TPS 282.854 | ETA 00:01:42
Time 00:04:30 | Step 926857 / 953000 | TPS 278.762 | ETA 00:01:33
Time 00:04:40 | Step 929534 / 953000 | TPS 267.66 | ETA 00:01:27
Time 00:04:50 | Step 932204 / 953000 | TPS 266.852 | ETA 00:01:17
Time 00:05:00 | Step 934827 / 953000 | TPS 262.121 | ETA 00:01:09
Time 00:05:10 | Step 937429 / 953000 | TPS 260.192 | ETA 00:00:59
Time 00:05:20 | Step 940155 / 953000 | TPS 272.427 | ETA 00:00:47
Time 00:05:30 | Step 942888 / 953000 | TPS 273.26 | ETA 00:00:37
Time 00:05:40 | Step 945693 / 953000 | TPS 280.305 | ETA 00:00:26
Time 00:05:50 | Step 948474 / 953000 | TPS 277.907 | ETA 00:00:16
Time 00:06:00 | Step 951169 / 953000 | TPS 269.5 | ETA 00:00:06
Time 00:06:06 | Step 953000 / 953000 | TPS 274.989 | ETA 00:00:00
Average TPS: 272.641
---------
-- Neighborlist stats:
45024 normal updates / 334 forced updates / 0 dangerous updates
n_neigh_min: 36 / n_neigh_max: 138 / n_neigh_avg: 102.874
shortest rebuild period: 1
** run complete **
[33mWARNING: Skipping user bind, non existent bind point (file) in container: '/usr/bin/nvidia-smi'
[0m[33mWARNING: Skipping user bind, non existent bind point (file) in container: '/usr/bin/nvidia-debugdump'
[0m[33mWARNING: Skipping user bind, non existent bind point (file) in container: '/usr/bin/nvidia-persistenced'
[0m[33mWARNING: Skipping user bind, non existent bind point (file) in container: '/usr/bin/nvidia-cuda-mps-control'
[0m[33mWARNING: Skipping user bind, non existent bind point (file) in container: '/usr/bin/nvidia-cuda-mps-server'
[0mHOOMD-blue 2.3.5 CUDA (8.0) DOUBLE HPMC_MIXED TBB SSE SSE2 
Compiled: 10/08/18
Copyright 2009-2018 The Regents of the University of Michigan.
-----
You are using HOOMD-blue. Please cite the following:
* J A Anderson, C D Lorenz, and A Travesset. "General purpose molecular dynamics
  simulations fully implemented on graphics processing units", Journal of
  Computational Physics 227 (2008) 5342--5359
* J Glaser, T D Nguyen, J A Anderson, P Liu, F Spiga, J A Millan, D C Morse, and
  S C Glotzer. "Strong scaling of general-purpose molecular dynamics simulations
  on GPUs", Computer Physics Communications 192 (2015) 97--107
-----
notice(2): This system is not compute exclusive, using local rank to select GPUs
HOOMD-blue is running on the following GPU(s):
 [0]            Tesla K20m  13 SM_3.5 @ 0.706 GHz, 4743 MiB DRAM
Equilibrium_70.py:045  |  system = hoomd.init.read_gsd(ramp_file,frame = -1)
notice(2): Group "all" created containing 1004 particles
Equilibrium_70.py:049  |  rigid = hoomd.md.constrain.rigid();
notice(2): constrain.rigid(): Creating 1000 rigid bodies (adding 8000 particles)
Equilibrium_70.py:061  |  nl = hoomd.md.nlist.tree()
-----
You are using tree neighbor lists. Please cite the following:
* M P Howard, J A Anderson, A Nikoubashman, S C Glotzer, and A Z
  Panagiotopoulos. "Efficient neighbor list calculation for molecular simulation
  of colloidal systems using graphics processing units", Computer Physics
  Communications 203 (2016) 45--52
-----
Equilibrium_70.py:063  |  lj = hoomd.md.pair.lj(r_cut = 3.5, nlist=nl)
Equilibrium_70.py:064  |  lj.set_params(mode='shift')
Equilibrium_70.py:068  |  lj.pair_coeff.set('NP','NP', epsilon = 1.0, sigma = 5.0);
Equilibrium_70.py:069  |  lj.pair_coeff.set('M' ,'M' , epsilon = 1.0, sigma = 1.0);
Equilibrium_70.py:070  |  lj.pair_coeff.set('A' ,'A' , epsilon = 1.0, sigma = 1.0);
Equilibrium_70.py:071  |  lj.pair_coeff.set('M' ,'A' , epsilon = 1.0, sigma = 1.0);
Equilibrium_70.py:072  |  lj.pair_coeff.set('NP','M' , epsilon = 1.0, sigma = 3.0);
Equilibrium_70.py:073  |  lj.pair_coeff.set('NP','A' , epsilon = 1.0, sigma = 3.0);
Equilibrium_70.py:077  |  hoomd.md.integrate.mode_standard(dt = 0.005);
Equilibrium_70.py:081  |  nanoparticles = hoomd.group.type(name = 'Nano_Particles', type = 'NP');
notice(2): Group "Nano_Particles" created containing 4 particles
Equilibrium_70.py:082  |  mesogens = hoomd.group.rigid_center();
notice(2): Group "rigid_center" created containing 1000 particles
notice(2): Group "NP_Mes" created containing 1004 particles
Equilibrium_70.py:087  |  npt = hoomd.md.integrate.npt(group = groupNP_mes, kT = temp, tau = 15.0, tauP = 15.0, P = pressure);
Equilibrium_70.py:094  |  log = hoomd.analyze.log(filename = log_file,
                         quantities = ['num_particles',
                                     'ndof',
                                     'translational_ndof',
                                     'rotational_ndof',
                                     'potential_energy',
                                     'kinetic_energy',
                                     'translational_kinetic_energy',
                                     'rotational_kinetic_energy',
                                     'temperature',
                                     'pressure',
                                      'volume'],
                         period = 1e3,
                         overwrite = True);
Equilibrium_70.py:110  |                 group = hoomd.group.all(),
Equilibrium_70.py:108  |  gsd = hoomd.dump.gsd(gsd_file,
               period = 1e3,
               group = hoomd.group.all(),
               overwrite=True); 
Equilibrium_70.py:112  |  meso_gsd = hoomd.dump.gsd(meso_gsd_file,
               period = 1e3,
               group = mesogens,
               overwrite=True); 
Equilibrium_70.py:123  |  hoomd.run(steps)
notice(2): -- Neighborlist exclusion statistics -- :
notice(2): Particles with 0 exclusions             : 9004
notice(2): Neighbors included by diameter          : no
notice(2): Neighbors excluded when in the same body: yes
** starting run **
Time 00:00:10 | Step 904559 / 1002000 | TPS 255.775 | ETA 00:06:20
Time 00:00:20 | Step 907237 / 1002000 | TPS 267.719 | ETA 00:05:53
Time 00:00:30 | Step 909911 / 1002000 | TPS 267.336 | ETA 00:05:44
Time 00:00:40 | Step 912562 / 1002000 | TPS 265.071 | ETA 00:05:37
Time 00:00:50 | Step 915258 / 1002000 | TPS 269.469 | ETA 00:05:21
Time 00:01:00 | Step 918003 / 1002000 | TPS 274.393 | ETA 00:05:06
Time 00:01:10 | Step 920767 / 1002000 | TPS 276.31 | ETA 00:04:53
Time 00:01:20 | Step 923588 / 1002000 | TPS 281.948 | ETA 00:04:38
Time 00:01:30 | Step 926373 / 1002000 | TPS 278.395 | ETA 00:04:31
Time 00:01:40 | Step 929094 / 1002000 | TPS 272.064 | ETA 00:04:27
Time 00:01:50 | Step 931732 / 1002000 | TPS 263.754 | ETA 00:04:26
Time 00:02:00 | Step 934387 / 1002000 | TPS 265.438 | ETA 00:04:14
Time 00:02:10 | Step 937061 / 1002000 | TPS 267.305 | ETA 00:04:02
Time 00:02:20 | Step 939747 / 1002000 | TPS 268.486 | ETA 00:03:51
Time 00:02:30 | Step 942496 / 1002000 | TPS 274.883 | ETA 00:03:36
Time 00:02:40 | Step 945275 / 1002000 | TPS 277.832 | ETA 00:03:24
Time 00:02:50 | Step 948170 / 1002000 | TPS 289.398 | ETA 00:03:06
Time 00:03:00 | Step 950941 / 1002000 | TPS 277.038 | ETA 00:03:04
Time 00:03:10 | Step 953636 / 1002000 | TPS 269.386 | ETA 00:02:59
Time 00:03:20 | Step 956273 / 1002000 | TPS 263.686 | ETA 00:02:53
Time 00:03:30 | Step 958930 / 1002000 | TPS 265.626 | ETA 00:02:42
Time 00:03:40 | Step 961596 / 1002000 | TPS 266.575 | ETA 00:02:31
Time 00:03:50 | Step 964277 / 1002000 | TPS 267.962 | ETA 00:02:20
Time 00:04:00 | Step 966971 / 1002000 | TPS 269.218 | ETA 00:02:10
Time 00:04:10 | Step 969746 / 1002000 | TPS 277.325 | ETA 00:01:56
Time 00:04:20 | Step 972555 / 1002000 | TPS 280.73 | ETA 00:01:44
Time 00:04:30 | Step 975291 / 1002000 | TPS 273.462 | ETA 00:01:37
Time 00:04:40 | Step 978009 / 1002000 | TPS 271.787 | ETA 00:01:28
Time 00:04:50 | Step 980700 / 1002000 | TPS 269.002 | ETA 00:01:19
Time 00:05:00 | Step 983380 / 1002000 | TPS 267.868 | ETA 00:01:09
Time 00:05:10 | Step 986059 / 1002000 | TPS 267.799 | ETA 00:00:59
Time 00:05:20 | Step 988788 / 1002000 | TPS 272.805 | ETA 00:00:48
Time 00:05:30 | Step 991557 / 1002000 | TPS 276.739 | ETA 00:00:37
Time 00:05:40 | Step 994336 / 1002000 | TPS 277.831 | ETA 00:00:27
Time 00:05:50 | Step 997102 / 1002000 | TPS 276.54 | ETA 00:00:17
Time 00:06:00 | Step 999794 / 1002000 | TPS 269.02 | ETA 00:00:08
Time 00:06:08 | Step 1002000 / 1002000 | TPS 271.685 | ETA 00:00:00
Average TPS: 271.558
---------
-- Neighborlist stats:
45916 normal updates / 334 forced updates / 0 dangerous updates
n_neigh_min: 27 / n_neigh_max: 137 / n_neigh_avg: 98.6542
shortest rebuild period: 1
** run complete **
