[33mWARNING: Skipping user bind, non existent bind point (file) in container: '/usr/bin/nvidia-smi'
[0m[33mWARNING: Skipping user bind, non existent bind point (file) in container: '/usr/bin/nvidia-debugdump'
[0m[33mWARNING: Skipping user bind, non existent bind point (file) in container: '/usr/bin/nvidia-persistenced'
[0m[33mWARNING: Skipping user bind, non existent bind point (file) in container: '/usr/bin/nvidia-cuda-mps-control'
[0m[33mWARNING: Skipping user bind, non existent bind point (file) in container: '/usr/bin/nvidia-cuda-mps-server'
[0m**ERROR**: nlist.tree(): Particle 354 is out of bounds (x: 14.3825, y: 18.4178, z: 18.8227, fx: 0.959181, fy: 1.08801, fz:1.10094)
HOOMD-blue 2.3.5 CUDA (8.0) DOUBLE HPMC_MIXED TBB SSE SSE2 
Compiled: 10/08/18
Copyright 2009-2018 The Regents of the University of Michigan.
-----
You are using HOOMD-blue. Please cite the following:
* J A Anderson, C D Lorenz, and A Travesset. "General purpose molecular dynamics
  simulations fully implemented on graphics processing units", Journal of
  Computational Physics 227 (2008) 5342--5359
* J Glaser, T D Nguyen, J A Anderson, P Liu, F Spiga, J A Millan, D C Morse, and
  S C Glotzer. "Strong scaling of general-purpose molecular dynamics simulations
  on GPUs", Computer Physics Communications 192 (2015) 97--107
-----
notice(2): This system is not compute exclusive, using local rank to select GPUs
HOOMD-blue is running on the following GPU(s):
 [0]            Tesla K20m  13 SM_3.5 @ 0.706 GHz, 4743 MiB DRAM
ramps_P23.py:015  |      system = init.read_gsd(ramp_file, frame = -1)
notice(2): Group "all" created containing 1010 particles
ramps_P23.py:016  |      rigid = md.constrain.rigid()
notice(2): constrain.rigid(): Creating 1000 rigid bodies (adding 8000 particles)
ramps_P23.py:023  |      nl = md.nlist.tree()
-----
You are using tree neighbor lists. Please cite the following:
* M P Howard, J A Anderson, A Nikoubashman, S C Glotzer, and A Z
  Panagiotopoulos. "Efficient neighbor list calculation for molecular simulation
  of colloidal systems using graphics processing units", Computer Physics
  Communications 203 (2016) 45--52
-----
ramps_P23.py:024  |      lj = md.pair.lj(r_cut = 3.5, nlist = nl)
ramps_P23.py:025  |      lj.set_params(mode = 'shift')
ramps_P23.py:027  |      lj.pair_coeff.set('NP','NP', epsilon = 1.0, sigma = 5.0)
ramps_P23.py:028  |      lj.pair_coeff.set('M' ,'M' , epsilon = 1.0, sigma = 1.0)
ramps_P23.py:029  |      lj.pair_coeff.set('A' ,'A' , epsilon = 1.0, sigma = 1.0)
ramps_P23.py:030  |      lj.pair_coeff.set('M' ,'A' , epsilon = 1.0, sigma = 1.0)
ramps_P23.py:031  |      lj.pair_coeff.set('NP','M' , epsilon = 1.0, sigma = 3.0)
ramps_P23.py:032  |      lj.pair_coeff.set('NP','A' , epsilon = 1.0, sigma = 3.0)
ramps_P23.py:033  |      md.integrate.mode_standard(dt = 0.005)
ramps_P23.py:037  |      nanoparticles = group.type(name = 'Nano_Particles', type = 'NP')
notice(2): Group "Nano_Particles" created containing 10 particles
ramps_P23.py:038  |      mesogens = group.rigid_center()
notice(2): Group "rigid_center" created containing 1000 particles
notice(2): Group "NP_Mes" created containing 1010 particles
ramps_P23.py:045  |      npt = md.integrate.npt(group = groupNP_mes, kT = temp, tau = 1.0, tauP = 1.0, P = p_max)
ramps_P23.py:054  |      log = analyze.log(filename = log_file, quantities = ['num_particles',
                                     'ndof',
                                     'translational_ndof',
                                     'rotational_ndof',
                                     'potential_energy',
                                     'kinetic_energy',
                                     'translational_kinetic_energy',
                                     'rotational_kinetic_energy',
                                     'temperature',
                                     'pressure',
                                      'volume'], period = 1e3, overwrite = True)
ramps_P23.py:065  |      gsd = dump.gsd(gsd_file, period = 1e3, group = group.all(), overwrite = True); 
ramps_P23.py:065  |      gsd = dump.gsd(gsd_file, period = 1e3, group = group.all(), overwrite = True); 
ramps_P23.py:066  |      meso_gsd = dump.gsd(meso_gsd_file, period = 1e3, group = groupNP_mes, overwrite = True); 
ramps_P23.py:067  |      run(steps_ramp)
notice(2): -- Neighborlist exclusion statistics -- :
notice(2): Particles with 0 exclusions             : 9010
notice(2): Neighbors included by diameter          : no
notice(2): Neighbors excluded when in the same body: yes
** starting run **
Time 00:00:10 | Step 252257 / 270000 | TPS 225.664 | ETA 00:01:18
Traceback (most recent call last):
  File "ramps_P23.py", line 67, in <module>
    run(steps_ramp)
  File "/usr/local/lib/python3.5/dist-packages/hoomd/__init__.py", line 194, in run
    context.current.system.run(int(tsteps), callback_period, callback, limit_hours, int(limit_multiple));
RuntimeError: Error updating neighborlist
