[33mWARNING: Skipping user bind, non existent bind point (file) in container: '/usr/bin/nvidia-smi'
[0m[33mWARNING: Skipping user bind, non existent bind point (file) in container: '/usr/bin/nvidia-debugdump'
[0m[33mWARNING: Skipping user bind, non existent bind point (file) in container: '/usr/bin/nvidia-persistenced'
[0m[33mWARNING: Skipping user bind, non existent bind point (file) in container: '/usr/bin/nvidia-cuda-mps-control'
[0m[33mWARNING: Skipping user bind, non existent bind point (file) in container: '/usr/bin/nvidia-cuda-mps-server'
[0mHOOMD-blue 2.3.5 CUDA (8.0) DOUBLE HPMC_MIXED TBB SSE SSE2 
Compiled: 10/08/18
Copyright 2009-2018 The Regents of the University of Michigan.
-----
You are using HOOMD-blue. Please cite the following:
* J A Anderson, C D Lorenz, and A Travesset. "General purpose molecular dynamics
  simulations fully implemented on graphics processing units", Journal of
  Computational Physics 227 (2008) 5342--5359
* J Glaser, T D Nguyen, J A Anderson, P Liu, F Spiga, J A Millan, D C Morse, and
  S C Glotzer. "Strong scaling of general-purpose molecular dynamics simulations
  on GPUs", Computer Physics Communications 192 (2015) 97--107
-----
notice(2): This system is not compute exclusive, using local rank to select GPUs
HOOMD-blue is running on the following GPU(s):
 [0]            Tesla K20m  13 SM_3.5 @ 0.706 GHz, 4743 MiB DRAM
Ramp_78.py:048  |  system = hoomd.init.read_gsd(ramp_file, frame = -1);
notice(2): Group "all" created containing 1010 particles
Ramp_78.py:052  |  rigid = hoomd.md.constrain.rigid();
notice(2): constrain.rigid(): Creating 1000 rigid bodies (adding 8000 particles)
Ramp_78.py:064  |  nl = hoomd.md.nlist.tree();
-----
You are using tree neighbor lists. Please cite the following:
* M P Howard, J A Anderson, A Nikoubashman, S C Glotzer, and A Z
  Panagiotopoulos. "Efficient neighbor list calculation for molecular simulation
  of colloidal systems using graphics processing units", Computer Physics
  Communications 203 (2016) 45--52
-----
Ramp_78.py:066  |  lj = hoomd.md.pair.lj(r_cut = 3.5, nlist = nl)
Ramp_78.py:067  |  lj.set_params(mode = 'shift')
Ramp_78.py:071  |  lj.pair_coeff.set('NP','NP', epsilon = 1.0, sigma = 5.0);
Ramp_78.py:072  |  lj.pair_coeff.set('M' ,'M' , epsilon = 1.0, sigma = 1.0);
Ramp_78.py:073  |  lj.pair_coeff.set('A' ,'A' , epsilon = 1.0, sigma = 1.0);
Ramp_78.py:074  |  lj.pair_coeff.set('M' ,'A' , epsilon = 1.0, sigma = 1.0);
Ramp_78.py:075  |  lj.pair_coeff.set('NP','M' , epsilon = 1.0, sigma = 3.0);
Ramp_78.py:076  |  lj.pair_coeff.set('NP','A' , epsilon = 1.0, sigma = 3.0);
Ramp_78.py:080  |  hoomd.md.integrate.mode_standard(dt = 0.005);
Ramp_78.py:084  |  nanoparticles = hoomd.group.type(name = 'Nano_Particles', type = 'NP');
notice(2): Group "Nano_Particles" created containing 10 particles
Ramp_78.py:085  |  mesogens = hoomd.group.rigid_center();
notice(2): Group "rigid_center" created containing 1000 particles
notice(2): Group "NP_Mes" created containing 1010 particles
Ramp_78.py:092  |  npt = hoomd.md.integrate.npt(group = groupNP_mes, kT = temp, tau = 3.5, tauP = 3.5, P = p_max);
Ramp_78.py:101  |  log = hoomd.analyze.log(filename = log_file,
                         quantities = ['num_particles',
                                     'ndof',
                                     'translational_ndof',
                                     'rotational_ndof',
                                     'potential_energy',
                                     'kinetic_energy',
                                     'translational_kinetic_energy',
                                     'rotational_kinetic_energy',
                                     'temperature',
                                     'pressure',
                                      'volume'],
                         period = 1e3,
                         overwrite = True);
Ramp_78.py:117  |                 group = hoomd.group.all(),
Ramp_78.py:115  |  gsd = hoomd.dump.gsd(gsd_file,
               period = 1e3,
               group = hoomd.group.all(),
               overwrite = True); 
Ramp_78.py:119  |  meso_gsd = hoomd.dump.gsd(meso_gsd_file,
               period = 1e3,
               group = groupNP_mes,
               overwrite = True); 
Ramp_78.py:130  |  hoomd.run(steps_ramp)
notice(2): -- Neighborlist exclusion statistics -- :
notice(2): Particles with 0 exclusions             : 9010
notice(2): Neighbors included by diameter          : no
notice(2): Neighbors excluded when in the same body: yes
** starting run **
Time 00:00:10 | Step 394959 / 433000 | TPS 195.896 | ETA 00:03:14
Time 00:00:20 | Step 397140 / 433000 | TPS 217.912 | ETA 00:02:44
Time 00:00:30 | Step 399292 / 433000 | TPS 215.042 | ETA 00:02:36
Time 00:00:40 | Step 401468 / 433000 | TPS 217.597 | ETA 00:02:24
Time 00:00:50 | Step 403636 / 433000 | TPS 216.704 | ETA 00:02:15
Time 00:01:00 | Step 408301 / 433000 | TPS 450.873 | ETA 00:00:54
Time 00:01:10 | Step 414376 / 433000 | TPS 607.5 | ETA 00:00:30
Time 00:01:20 | Step 420447 / 433000 | TPS 607.078 | ETA 00:00:20
Time 00:01:30 | Step 426522 / 433000 | TPS 607.478 | ETA 00:00:10
Time 00:01:40 | Step 432596 / 433000 | TPS 607.381 | ETA 00:00:00
Time 00:01:41 | Step 433000 / 433000 | TPS 449.335 | ETA 00:00:00
Average TPS: 394.993
---------
-- Neighborlist stats:
5547 normal updates / 135 forced updates / 0 dangerous updates
n_neigh_min: 0 / n_neigh_max: 0 / n_neigh_avg: 0
shortest rebuild period: 1
** run complete **
[33mWARNING: Skipping user bind, non existent bind point (file) in container: '/usr/bin/nvidia-smi'
[0m[33mWARNING: Skipping user bind, non existent bind point (file) in container: '/usr/bin/nvidia-debugdump'
[0m[33mWARNING: Skipping user bind, non existent bind point (file) in container: '/usr/bin/nvidia-persistenced'
[0m[33mWARNING: Skipping user bind, non existent bind point (file) in container: '/usr/bin/nvidia-cuda-mps-control'
[0m[33mWARNING: Skipping user bind, non existent bind point (file) in container: '/usr/bin/nvidia-cuda-mps-server'
[0mHOOMD-blue 2.3.5 CUDA (8.0) DOUBLE HPMC_MIXED TBB SSE SSE2 
Compiled: 10/08/18
Copyright 2009-2018 The Regents of the University of Michigan.
-----
You are using HOOMD-blue. Please cite the following:
* J A Anderson, C D Lorenz, and A Travesset. "General purpose molecular dynamics
  simulations fully implemented on graphics processing units", Journal of
  Computational Physics 227 (2008) 5342--5359
* J Glaser, T D Nguyen, J A Anderson, P Liu, F Spiga, J A Millan, D C Morse, and
  S C Glotzer. "Strong scaling of general-purpose molecular dynamics simulations
  on GPUs", Computer Physics Communications 192 (2015) 97--107
-----
notice(2): This system is not compute exclusive, using local rank to select GPUs
HOOMD-blue is running on the following GPU(s):
 [0]            Tesla K20m  13 SM_3.5 @ 0.706 GHz, 4743 MiB DRAM
Ramp_80.py:048  |  system = hoomd.init.read_gsd(ramp_file, frame = -1);
notice(2): Group "all" created containing 1010 particles
Ramp_80.py:052  |  rigid = hoomd.md.constrain.rigid();
notice(2): constrain.rigid(): Creating 1000 rigid bodies (adding 8000 particles)
Ramp_80.py:064  |  nl = hoomd.md.nlist.tree();
-----
You are using tree neighbor lists. Please cite the following:
* M P Howard, J A Anderson, A Nikoubashman, S C Glotzer, and A Z
  Panagiotopoulos. "Efficient neighbor list calculation for molecular simulation
  of colloidal systems using graphics processing units", Computer Physics
  Communications 203 (2016) 45--52
-----
Ramp_80.py:066  |  lj = hoomd.md.pair.lj(r_cut = 3.5, nlist = nl)
Ramp_80.py:067  |  lj.set_params(mode = 'shift')
Ramp_80.py:071  |  lj.pair_coeff.set('NP','NP', epsilon = 1.0, sigma = 5.0);
Ramp_80.py:072  |  lj.pair_coeff.set('M' ,'M' , epsilon = 1.0, sigma = 1.0);
Ramp_80.py:073  |  lj.pair_coeff.set('A' ,'A' , epsilon = 1.0, sigma = 1.0);
Ramp_80.py:074  |  lj.pair_coeff.set('M' ,'A' , epsilon = 1.0, sigma = 1.0);
Ramp_80.py:075  |  lj.pair_coeff.set('NP','M' , epsilon = 1.0, sigma = 3.0);
Ramp_80.py:076  |  lj.pair_coeff.set('NP','A' , epsilon = 1.0, sigma = 3.0);
Ramp_80.py:080  |  hoomd.md.integrate.mode_standard(dt = 0.005);
Ramp_80.py:084  |  nanoparticles = hoomd.group.type(name = 'Nano_Particles', type = 'NP');
notice(2): Group "Nano_Particles" created containing 10 particles
Ramp_80.py:085  |  mesogens = hoomd.group.rigid_center();
notice(2): Group "rigid_center" created containing 1000 particles
notice(2): Group "NP_Mes" created containing 1010 particles
Ramp_80.py:092  |  npt = hoomd.md.integrate.npt(group = groupNP_mes, kT = temp, tau =3.5, tauP = 3.5, P = p_max);
Ramp_80.py:101  |  log = hoomd.analyze.log(filename = log_file,
                         quantities = ['num_particles',
                                     'ndof',
                                     'translational_ndof',
                                     'rotational_ndof',
                                     'potential_energy',
                                     'kinetic_energy',
                                     'translational_kinetic_energy',
                                     'rotational_kinetic_energy',
                                     'temperature',
                                     'pressure',
                                      'volume'],
                         period = 1e3,
                         overwrite = True);
Ramp_80.py:117  |                 group = hoomd.group.all(),
Ramp_80.py:115  |  gsd = hoomd.dump.gsd(gsd_file,
               period = 1e3,
               group = hoomd.group.all(),
               overwrite = True); 
Ramp_80.py:119  |  meso_gsd = hoomd.dump.gsd(meso_gsd_file,
               period = 1e3,
               group = groupNP_mes,
               overwrite = True); 
Ramp_80.py:130  |  hoomd.run(steps_ramp)
notice(2): -- Neighborlist exclusion statistics -- :
notice(2): Particles with 0 exclusions             : 9010
notice(2): Neighbors included by diameter          : no
notice(2): Neighbors excluded when in the same body: yes
** starting run **
Time 00:00:10 | Step 437101 / 472000 | TPS 495.917 | ETA 00:01:10
Time 00:00:20 | Step 444001 / 472000 | TPS 672.764 | ETA 00:00:41
Time 00:00:30 | Step 449701 / 472000 | TPS 565.228 | ETA 00:00:39
Time 00:00:41 | Step 454801 / 472000 | TPS 492.763 | ETA 00:00:34
Time 00:00:51 | Step 458701 / 472000 | TPS 379.903 | ETA 00:00:35
Time 00:01:01 | Step 462601 / 472000 | TPS 380.17 | ETA 00:00:24
Time 00:01:11 | Step 468873 / 472000 | TPS 627.177 | ETA 00:00:04
Time 00:01:16 | Step 472000 / 472000 | TPS 591.335 | ETA 00:00:00
Average TPS: 520.906
---------
-- Neighborlist stats:
0 normal updates / 135 forced updates / 0 dangerous updates
n_neigh_min: 0 / n_neigh_max: 0 / n_neigh_avg: 0
shortest rebuild period: 100
** run complete **
[33mWARNING: Skipping user bind, non existent bind point (file) in container: '/usr/bin/nvidia-smi'
[0m[33mWARNING: Skipping user bind, non existent bind point (file) in container: '/usr/bin/nvidia-debugdump'
[0m[33mWARNING: Skipping user bind, non existent bind point (file) in container: '/usr/bin/nvidia-persistenced'
[0m[33mWARNING: Skipping user bind, non existent bind point (file) in container: '/usr/bin/nvidia-cuda-mps-control'
[0m[33mWARNING: Skipping user bind, non existent bind point (file) in container: '/usr/bin/nvidia-cuda-mps-server'
[0mHOOMD-blue 2.3.5 CUDA (8.0) DOUBLE HPMC_MIXED TBB SSE SSE2 
Compiled: 10/08/18
Copyright 2009-2018 The Regents of the University of Michigan.
-----
You are using HOOMD-blue. Please cite the following:
* J A Anderson, C D Lorenz, and A Travesset. "General purpose molecular dynamics
  simulations fully implemented on graphics processing units", Journal of
  Computational Physics 227 (2008) 5342--5359
* J Glaser, T D Nguyen, J A Anderson, P Liu, F Spiga, J A Millan, D C Morse, and
  S C Glotzer. "Strong scaling of general-purpose molecular dynamics simulations
  on GPUs", Computer Physics Communications 192 (2015) 97--107
-----
notice(2): This system is not compute exclusive, using local rank to select GPUs
HOOMD-blue is running on the following GPU(s):
 [0]            Tesla K20m  13 SM_3.5 @ 0.706 GHz, 4743 MiB DRAM
Ramp_82.py:048  |  system = hoomd.init.read_gsd(ramp_file, frame = -1);
notice(2): Group "all" created containing 1010 particles
Ramp_82.py:052  |  rigid = hoomd.md.constrain.rigid();
notice(2): constrain.rigid(): Creating 1000 rigid bodies (adding 8000 particles)
Ramp_82.py:064  |  nl = hoomd.md.nlist.tree();
-----
You are using tree neighbor lists. Please cite the following:
* M P Howard, J A Anderson, A Nikoubashman, S C Glotzer, and A Z
  Panagiotopoulos. "Efficient neighbor list calculation for molecular simulation
  of colloidal systems using graphics processing units", Computer Physics
  Communications 203 (2016) 45--52
-----
Ramp_82.py:066  |  lj = hoomd.md.pair.lj(r_cut = 3.5, nlist = nl)
Ramp_82.py:067  |  lj.set_params(mode = 'shift')
Ramp_82.py:071  |  lj.pair_coeff.set('NP','NP', epsilon = 1.0, sigma = 5.0);
Ramp_82.py:072  |  lj.pair_coeff.set('M' ,'M' , epsilon = 1.0, sigma = 1.0);
Ramp_82.py:073  |  lj.pair_coeff.set('A' ,'A' , epsilon = 1.0, sigma = 1.0);
Ramp_82.py:074  |  lj.pair_coeff.set('M' ,'A' , epsilon = 1.0, sigma = 1.0);
Ramp_82.py:075  |  lj.pair_coeff.set('NP','M' , epsilon = 1.0, sigma = 3.0);
Ramp_82.py:076  |  lj.pair_coeff.set('NP','A' , epsilon = 1.0, sigma = 3.0);
Ramp_82.py:080  |  hoomd.md.integrate.mode_standard(dt = 0.005);
Ramp_82.py:084  |  nanoparticles = hoomd.group.type(name = 'Nano_Particles', type = 'NP');
notice(2): Group "Nano_Particles" created containing 10 particles
Ramp_82.py:085  |  mesogens = hoomd.group.rigid_center();
notice(2): Group "rigid_center" created containing 1000 particles
notice(2): Group "NP_Mes" created containing 1010 particles
Ramp_82.py:092  |  npt = hoomd.md.integrate.npt(group = groupNP_mes, kT = temp, tau = 3.5, tauP = 3.5, P = p_max);
Ramp_82.py:101  |  log = hoomd.analyze.log(filename = log_file,
                         quantities = ['num_particles',
                                     'ndof',
                                     'translational_ndof',
                                     'rotational_ndof',
                                     'potential_energy',
                                     'kinetic_energy',
                                     'translational_kinetic_energy',
                                     'rotational_kinetic_energy',
                                     'temperature',
                                     'pressure',
                                      'volume'],
                         period = 1e3,
                         overwrite = True);
Ramp_82.py:117  |                 group = hoomd.group.all(),
Ramp_82.py:115  |  gsd = hoomd.dump.gsd(gsd_file,
               period = 1e3,
               group = hoomd.group.all(),
               overwrite = True); 
Ramp_82.py:119  |  meso_gsd = hoomd.dump.gsd(meso_gsd_file,
               period = 1e3,
               group = groupNP_mes,
               overwrite = True); 
Ramp_82.py:130  |  hoomd.run(steps_ramp)
notice(2): -- Neighborlist exclusion statistics -- :
notice(2): Particles with 0 exclusions             : 9010
notice(2): Neighbors included by diameter          : no
notice(2): Neighbors excluded when in the same body: yes
** starting run **
Time 00:00:10 | Step 476101 / 511000 | TPS 496.764 | ETA 00:01:10
Time 00:00:20 | Step 483001 / 511000 | TPS 674.384 | ETA 00:00:41
Time 00:00:30 | Step 488701 / 511000 | TPS 565.998 | ETA 00:00:39
Time 00:00:41 | Step 493801 / 511000 | TPS 493.612 | ETA 00:00:34
Time 00:00:51 | Step 497701 / 511000 | TPS 380.622 | ETA 00:00:34
Time 00:01:01 | Step 501601 / 511000 | TPS 380.665 | ETA 00:00:24
Time 00:01:11 | Step 507901 / 511000 | TPS 608.419 | ETA 00:00:05
Time 00:01:16 | Step 511000 / 511000 | TPS 632.017 | ETA 00:00:00
Average TPS: 521.836
---------
-- Neighborlist stats:
0 normal updates / 135 forced updates / 0 dangerous updates
n_neigh_min: 0 / n_neigh_max: 0 / n_neigh_avg: 0
shortest rebuild period: 100
** run complete **
[33mWARNING: Skipping user bind, non existent bind point (file) in container: '/usr/bin/nvidia-smi'
[0m[33mWARNING: Skipping user bind, non existent bind point (file) in container: '/usr/bin/nvidia-debugdump'
[0m[33mWARNING: Skipping user bind, non existent bind point (file) in container: '/usr/bin/nvidia-persistenced'
[0m[33mWARNING: Skipping user bind, non existent bind point (file) in container: '/usr/bin/nvidia-cuda-mps-control'
[0m[33mWARNING: Skipping user bind, non existent bind point (file) in container: '/usr/bin/nvidia-cuda-mps-server'
[0mHOOMD-blue 2.3.5 CUDA (8.0) DOUBLE HPMC_MIXED TBB SSE SSE2 
Compiled: 10/08/18
Copyright 2009-2018 The Regents of the University of Michigan.
-----
You are using HOOMD-blue. Please cite the following:
* J A Anderson, C D Lorenz, and A Travesset. "General purpose molecular dynamics
  simulations fully implemented on graphics processing units", Journal of
  Computational Physics 227 (2008) 5342--5359
* J Glaser, T D Nguyen, J A Anderson, P Liu, F Spiga, J A Millan, D C Morse, and
  S C Glotzer. "Strong scaling of general-purpose molecular dynamics simulations
  on GPUs", Computer Physics Communications 192 (2015) 97--107
-----
notice(2): This system is not compute exclusive, using local rank to select GPUs
HOOMD-blue is running on the following GPU(s):
 [0]            Tesla K20m  13 SM_3.5 @ 0.706 GHz, 4743 MiB DRAM
Ramp_84.py:048  |  system = hoomd.init.read_gsd(ramp_file, frame = -1);
notice(2): Group "all" created containing 1010 particles
Ramp_84.py:052  |  rigid = hoomd.md.constrain.rigid();
notice(2): constrain.rigid(): Creating 1000 rigid bodies (adding 8000 particles)
Ramp_84.py:064  |  nl = hoomd.md.nlist.tree();
-----
You are using tree neighbor lists. Please cite the following:
* M P Howard, J A Anderson, A Nikoubashman, S C Glotzer, and A Z
  Panagiotopoulos. "Efficient neighbor list calculation for molecular simulation
  of colloidal systems using graphics processing units", Computer Physics
  Communications 203 (2016) 45--52
-----
Ramp_84.py:066  |  lj = hoomd.md.pair.lj(r_cut = 3.5, nlist = nl)
Ramp_84.py:067  |  lj.set_params(mode = 'shift')
Ramp_84.py:071  |  lj.pair_coeff.set('NP','NP', epsilon = 1.0, sigma = 5.0);
Ramp_84.py:072  |  lj.pair_coeff.set('M' ,'M' , epsilon = 1.0, sigma = 1.0);
Ramp_84.py:073  |  lj.pair_coeff.set('A' ,'A' , epsilon = 1.0, sigma = 1.0);
Ramp_84.py:074  |  lj.pair_coeff.set('M' ,'A' , epsilon = 1.0, sigma = 1.0);
Ramp_84.py:075  |  lj.pair_coeff.set('NP','M' , epsilon = 1.0, sigma = 3.0);
Ramp_84.py:076  |  lj.pair_coeff.set('NP','A' , epsilon = 1.0, sigma = 3.0);
Ramp_84.py:080  |  hoomd.md.integrate.mode_standard(dt = 0.005);
Ramp_84.py:084  |  nanoparticles = hoomd.group.type(name = 'Nano_Particles', type = 'NP');
notice(2): Group "Nano_Particles" created containing 10 particles
Ramp_84.py:085  |  mesogens = hoomd.group.rigid_center();
notice(2): Group "rigid_center" created containing 1000 particles
notice(2): Group "NP_Mes" created containing 1010 particles
Ramp_84.py:092  |  npt = hoomd.md.integrate.npt(group = groupNP_mes, kT = temp, tau = 4.0, tauP = 4.0, P = p_max);
Ramp_84.py:101  |  log = hoomd.analyze.log(filename = log_file,
                         quantities = ['num_particles',
                                     'ndof',
                                     'translational_ndof',
                                     'rotational_ndof',
                                     'potential_energy',
                                     'kinetic_energy',
                                     'translational_kinetic_energy',
                                     'rotational_kinetic_energy',
                                     'temperature',
                                     'pressure',
                                      'volume'],
                         period = 1e3,
                         overwrite = True);
Ramp_84.py:117  |                 group = hoomd.group.all(),
Ramp_84.py:115  |  gsd = hoomd.dump.gsd(gsd_file,
               period = 1e3,
               group = hoomd.group.all(),
               overwrite = True); 
Ramp_84.py:119  |  meso_gsd = hoomd.dump.gsd(meso_gsd_file,
               period = 1e3,
               group = groupNP_mes,
               overwrite = True); 
Ramp_84.py:130  |  hoomd.run(steps_ramp)
notice(2): -- Neighborlist exclusion statistics -- :
notice(2): Particles with 0 exclusions             : 9010
notice(2): Neighbors included by diameter          : no
notice(2): Neighbors excluded when in the same body: yes
** starting run **
Time 00:00:10 | Step 515101 / 550000 | TPS 496.669 | ETA 00:01:10
Time 00:00:20 | Step 522001 / 550000 | TPS 673.965 | ETA 00:00:41
Time 00:00:30 | Step 527701 / 550000 | TPS 565.626 | ETA 00:00:39
Time 00:00:41 | Step 532801 / 550000 | TPS 493.375 | ETA 00:00:34
Time 00:00:51 | Step 536701 / 550000 | TPS 380.501 | ETA 00:00:34
Time 00:01:01 | Step 540601 / 550000 | TPS 380.555 | ETA 00:00:24
Time 00:01:11 | Step 546901 / 550000 | TPS 607.905 | ETA 00:00:05
Time 00:01:16 | Step 550000 / 550000 | TPS 631.319 | ETA 00:00:00
Average TPS: 521.562
---------
-- Neighborlist stats:
0 normal updates / 135 forced updates / 0 dangerous updates
n_neigh_min: 0 / n_neigh_max: 0 / n_neigh_avg: 0
shortest rebuild period: 100
** run complete **
[33mWARNING: Skipping user bind, non existent bind point (file) in container: '/usr/bin/nvidia-smi'
[0m[33mWARNING: Skipping user bind, non existent bind point (file) in container: '/usr/bin/nvidia-debugdump'
[0m[33mWARNING: Skipping user bind, non existent bind point (file) in container: '/usr/bin/nvidia-persistenced'
[0m[33mWARNING: Skipping user bind, non existent bind point (file) in container: '/usr/bin/nvidia-cuda-mps-control'
[0m[33mWARNING: Skipping user bind, non existent bind point (file) in container: '/usr/bin/nvidia-cuda-mps-server'
[0mHOOMD-blue 2.3.5 CUDA (8.0) DOUBLE HPMC_MIXED TBB SSE SSE2 
Compiled: 10/08/18
Copyright 2009-2018 The Regents of the University of Michigan.
-----
You are using HOOMD-blue. Please cite the following:
* J A Anderson, C D Lorenz, and A Travesset. "General purpose molecular dynamics
  simulations fully implemented on graphics processing units", Journal of
  Computational Physics 227 (2008) 5342--5359
* J Glaser, T D Nguyen, J A Anderson, P Liu, F Spiga, J A Millan, D C Morse, and
  S C Glotzer. "Strong scaling of general-purpose molecular dynamics simulations
  on GPUs", Computer Physics Communications 192 (2015) 97--107
-----
notice(2): This system is not compute exclusive, using local rank to select GPUs
HOOMD-blue is running on the following GPU(s):
 [0]            Tesla K20m  13 SM_3.5 @ 0.706 GHz, 4743 MiB DRAM
Ramp_86.py:048  |  system = hoomd.init.read_gsd(ramp_file, frame = -1);
notice(2): Group "all" created containing 1010 particles
Ramp_86.py:052  |  rigid = hoomd.md.constrain.rigid();
notice(2): constrain.rigid(): Creating 1000 rigid bodies (adding 8000 particles)
Ramp_86.py:064  |  nl = hoomd.md.nlist.tree();
-----
You are using tree neighbor lists. Please cite the following:
* M P Howard, J A Anderson, A Nikoubashman, S C Glotzer, and A Z
  Panagiotopoulos. "Efficient neighbor list calculation for molecular simulation
  of colloidal systems using graphics processing units", Computer Physics
  Communications 203 (2016) 45--52
-----
Ramp_86.py:066  |  lj = hoomd.md.pair.lj(r_cut = 3.5, nlist = nl)
Ramp_86.py:067  |  lj.set_params(mode = 'shift')
Ramp_86.py:071  |  lj.pair_coeff.set('NP','NP', epsilon = 1.0, sigma = 5.0);
Ramp_86.py:072  |  lj.pair_coeff.set('M' ,'M' , epsilon = 1.0, sigma = 1.0);
Ramp_86.py:073  |  lj.pair_coeff.set('A' ,'A' , epsilon = 1.0, sigma = 1.0);
Ramp_86.py:074  |  lj.pair_coeff.set('M' ,'A' , epsilon = 1.0, sigma = 1.0);
Ramp_86.py:075  |  lj.pair_coeff.set('NP','M' , epsilon = 1.0, sigma = 3.0);
Ramp_86.py:076  |  lj.pair_coeff.set('NP','A' , epsilon = 1.0, sigma = 3.0);
Ramp_86.py:080  |  hoomd.md.integrate.mode_standard(dt = 0.005);
Ramp_86.py:084  |  nanoparticles = hoomd.group.type(name = 'Nano_Particles', type = 'NP');
notice(2): Group "Nano_Particles" created containing 10 particles
Ramp_86.py:085  |  mesogens = hoomd.group.rigid_center();
notice(2): Group "rigid_center" created containing 1000 particles
notice(2): Group "NP_Mes" created containing 1010 particles
Ramp_86.py:092  |  npt = hoomd.md.integrate.npt(group = groupNP_mes, kT = temp, tau = 4.0, tauP = 4.0, P = p_max);
Ramp_86.py:101  |  log = hoomd.analyze.log(filename = log_file,
                         quantities = ['num_particles',
                                     'ndof',
                                     'translational_ndof',
                                     'rotational_ndof',
                                     'potential_energy',
                                     'kinetic_energy',
                                     'translational_kinetic_energy',
                                     'rotational_kinetic_energy',
                                     'temperature',
                                     'pressure',
                                      'volume'],
                         period = 1e3,
                         overwrite = True);
Ramp_86.py:117  |                 group = hoomd.group.all(),
Ramp_86.py:115  |  gsd = hoomd.dump.gsd(gsd_file,
               period = 1e3,
               group = hoomd.group.all(),
               overwrite = True); 
Ramp_86.py:119  |  meso_gsd = hoomd.dump.gsd(meso_gsd_file,
               period = 1e3,
               group = groupNP_mes,
               overwrite = True); 
Ramp_86.py:130  |  hoomd.run(steps_ramp)
notice(2): -- Neighborlist exclusion statistics -- :
notice(2): Particles with 0 exclusions             : 9010
notice(2): Neighbors included by diameter          : no
notice(2): Neighbors excluded when in the same body: yes
** starting run **
Time 00:00:10 | Step 554101 / 589000 | TPS 495.93 | ETA 00:01:10
Time 00:00:20 | Step 561001 / 589000 | TPS 673.908 | ETA 00:00:41
Time 00:00:30 | Step 566701 / 589000 | TPS 565.504 | ETA 00:00:39
Time 00:00:41 | Step 571801 / 589000 | TPS 493.411 | ETA 00:00:34
Time 00:00:51 | Step 575701 / 589000 | TPS 380.421 | ETA 00:00:34
Time 00:01:01 | Step 579601 / 589000 | TPS 380.502 | ETA 00:00:24
Time 00:01:11 | Step 585901 / 589000 | TPS 607.957 | ETA 00:00:05
Time 00:01:16 | Step 589000 / 589000 | TPS 631.699 | ETA 00:00:00
Average TPS: 521.444
---------
-- Neighborlist stats:
0 normal updates / 135 forced updates / 0 dangerous updates
n_neigh_min: 0 / n_neigh_max: 0 / n_neigh_avg: 0
shortest rebuild period: 100
** run complete **
[33mWARNING: Skipping user bind, non existent bind point (file) in container: '/usr/bin/nvidia-smi'
[0m[33mWARNING: Skipping user bind, non existent bind point (file) in container: '/usr/bin/nvidia-debugdump'
[0m[33mWARNING: Skipping user bind, non existent bind point (file) in container: '/usr/bin/nvidia-persistenced'
[0m[33mWARNING: Skipping user bind, non existent bind point (file) in container: '/usr/bin/nvidia-cuda-mps-control'
[0m[33mWARNING: Skipping user bind, non existent bind point (file) in container: '/usr/bin/nvidia-cuda-mps-server'
[0mHOOMD-blue 2.3.5 CUDA (8.0) DOUBLE HPMC_MIXED TBB SSE SSE2 
Compiled: 10/08/18
Copyright 2009-2018 The Regents of the University of Michigan.
-----
You are using HOOMD-blue. Please cite the following:
* J A Anderson, C D Lorenz, and A Travesset. "General purpose molecular dynamics
  simulations fully implemented on graphics processing units", Journal of
  Computational Physics 227 (2008) 5342--5359
* J Glaser, T D Nguyen, J A Anderson, P Liu, F Spiga, J A Millan, D C Morse, and
  S C Glotzer. "Strong scaling of general-purpose molecular dynamics simulations
  on GPUs", Computer Physics Communications 192 (2015) 97--107
-----
notice(2): This system is not compute exclusive, using local rank to select GPUs
HOOMD-blue is running on the following GPU(s):
 [0]            Tesla K20m  13 SM_3.5 @ 0.706 GHz, 4743 MiB DRAM
Ramp_88.py:048  |  system = hoomd.init.read_gsd(ramp_file, frame = -1);
notice(2): Group "all" created containing 1010 particles
Ramp_88.py:052  |  rigid = hoomd.md.constrain.rigid();
notice(2): constrain.rigid(): Creating 1000 rigid bodies (adding 8000 particles)
Ramp_88.py:064  |  nl = hoomd.md.nlist.tree();
-----
You are using tree neighbor lists. Please cite the following:
* M P Howard, J A Anderson, A Nikoubashman, S C Glotzer, and A Z
  Panagiotopoulos. "Efficient neighbor list calculation for molecular simulation
  of colloidal systems using graphics processing units", Computer Physics
  Communications 203 (2016) 45--52
-----
Ramp_88.py:066  |  lj = hoomd.md.pair.lj(r_cut = 3.5, nlist = nl)
Ramp_88.py:067  |  lj.set_params(mode = 'shift')
Ramp_88.py:071  |  lj.pair_coeff.set('NP','NP', epsilon = 1.0, sigma = 5.0);
Ramp_88.py:072  |  lj.pair_coeff.set('M' ,'M' , epsilon = 1.0, sigma = 1.0);
Ramp_88.py:073  |  lj.pair_coeff.set('A' ,'A' , epsilon = 1.0, sigma = 1.0);
Ramp_88.py:074  |  lj.pair_coeff.set('M' ,'A' , epsilon = 1.0, sigma = 1.0);
Ramp_88.py:075  |  lj.pair_coeff.set('NP','M' , epsilon = 1.0, sigma = 3.0);
Ramp_88.py:076  |  lj.pair_coeff.set('NP','A' , epsilon = 1.0, sigma = 3.0);
Ramp_88.py:080  |  hoomd.md.integrate.mode_standard(dt = 0.005);
Ramp_88.py:084  |  nanoparticles = hoomd.group.type(name = 'Nano_Particles', type = 'NP');
notice(2): Group "Nano_Particles" created containing 10 particles
Ramp_88.py:085  |  mesogens = hoomd.group.rigid_center();
notice(2): Group "rigid_center" created containing 1000 particles
notice(2): Group "NP_Mes" created containing 1010 particles
Ramp_88.py:092  |  npt = hoomd.md.integrate.npt(group = groupNP_mes, kT = temp, tau = 4.0, tauP = 4.0, P = p_max);
Ramp_88.py:101  |  log = hoomd.analyze.log(filename = log_file,
                         quantities = ['num_particles',
                                     'ndof',
                                     'translational_ndof',
                                     'rotational_ndof',
                                     'potential_energy',
                                     'kinetic_energy',
                                     'translational_kinetic_energy',
                                     'rotational_kinetic_energy',
                                     'temperature',
                                     'pressure',
                                      'volume'],
                         period = 1e3,
                         overwrite = True);
Ramp_88.py:117  |                 group = hoomd.group.all(),
Ramp_88.py:115  |  gsd = hoomd.dump.gsd(gsd_file,
               period = 1e3,
               group = hoomd.group.all(),
               overwrite = True); 
Ramp_88.py:119  |  meso_gsd = hoomd.dump.gsd(meso_gsd_file,
               period = 1e3,
               group = groupNP_mes,
               overwrite = True); 
Ramp_88.py:130  |  hoomd.run(steps_ramp)
notice(2): -- Neighborlist exclusion statistics -- :
notice(2): Particles with 0 exclusions             : 9010
notice(2): Neighbors included by diameter          : no
notice(2): Neighbors excluded when in the same body: yes
** starting run **
Time 00:00:10 | Step 593101 / 628000 | TPS 495.923 | ETA 00:01:10
Time 00:00:20 | Step 600001 / 628000 | TPS 673.358 | ETA 00:00:41
Time 00:00:30 | Step 605701 / 628000 | TPS 565.304 | ETA 00:00:39
Time 00:00:41 | Step 610801 / 628000 | TPS 492.871 | ETA 00:00:34
Time 00:00:51 | Step 614701 / 628000 | TPS 380.342 | ETA 00:00:34
Time 00:01:01 | Step 618601 / 628000 | TPS 380.291 | ETA 00:00:24
Time 00:01:11 | Step 624877 / 628000 | TPS 627.59 | ETA 00:00:04
Time 00:01:16 | Step 628000 / 628000 | TPS 591.021 | ETA 00:00:00
Average TPS: 521.124
---------
-- Neighborlist stats:
0 normal updates / 135 forced updates / 0 dangerous updates
n_neigh_min: 0 / n_neigh_max: 0 / n_neigh_avg: 0
shortest rebuild period: 100
** run complete **
[33mWARNING: Skipping user bind, non existent bind point (file) in container: '/usr/bin/nvidia-smi'
[0m[33mWARNING: Skipping user bind, non existent bind point (file) in container: '/usr/bin/nvidia-debugdump'
[0m[33mWARNING: Skipping user bind, non existent bind point (file) in container: '/usr/bin/nvidia-persistenced'
[0m[33mWARNING: Skipping user bind, non existent bind point (file) in container: '/usr/bin/nvidia-cuda-mps-control'
[0m[33mWARNING: Skipping user bind, non existent bind point (file) in container: '/usr/bin/nvidia-cuda-mps-server'
[0mHOOMD-blue 2.3.5 CUDA (8.0) DOUBLE HPMC_MIXED TBB SSE SSE2 
Compiled: 10/08/18
Copyright 2009-2018 The Regents of the University of Michigan.
-----
You are using HOOMD-blue. Please cite the following:
* J A Anderson, C D Lorenz, and A Travesset. "General purpose molecular dynamics
  simulations fully implemented on graphics processing units", Journal of
  Computational Physics 227 (2008) 5342--5359
* J Glaser, T D Nguyen, J A Anderson, P Liu, F Spiga, J A Millan, D C Morse, and
  S C Glotzer. "Strong scaling of general-purpose molecular dynamics simulations
  on GPUs", Computer Physics Communications 192 (2015) 97--107
-----
notice(2): This system is not compute exclusive, using local rank to select GPUs
HOOMD-blue is running on the following GPU(s):
 [0]            Tesla K20m  13 SM_3.5 @ 0.706 GHz, 4743 MiB DRAM
Ramp_90.py:048  |  system = hoomd.init.read_gsd(ramp_file, frame = -1);
notice(2): Group "all" created containing 1010 particles
Ramp_90.py:052  |  rigid = hoomd.md.constrain.rigid();
notice(2): constrain.rigid(): Creating 1000 rigid bodies (adding 8000 particles)
Ramp_90.py:064  |  nl = hoomd.md.nlist.tree();
-----
You are using tree neighbor lists. Please cite the following:
* M P Howard, J A Anderson, A Nikoubashman, S C Glotzer, and A Z
  Panagiotopoulos. "Efficient neighbor list calculation for molecular simulation
  of colloidal systems using graphics processing units", Computer Physics
  Communications 203 (2016) 45--52
-----
Ramp_90.py:066  |  lj = hoomd.md.pair.lj(r_cut = 3.5, nlist = nl)
Ramp_90.py:067  |  lj.set_params(mode = 'shift')
Ramp_90.py:071  |  lj.pair_coeff.set('NP','NP', epsilon = 1.0, sigma = 5.0);
Ramp_90.py:072  |  lj.pair_coeff.set('M' ,'M' , epsilon = 1.0, sigma = 1.0);
Ramp_90.py:073  |  lj.pair_coeff.set('A' ,'A' , epsilon = 1.0, sigma = 1.0);
Ramp_90.py:074  |  lj.pair_coeff.set('M' ,'A' , epsilon = 1.0, sigma = 1.0);
Ramp_90.py:075  |  lj.pair_coeff.set('NP','M' , epsilon = 1.0, sigma = 3.0);
Ramp_90.py:076  |  lj.pair_coeff.set('NP','A' , epsilon = 1.0, sigma = 3.0);
Ramp_90.py:080  |  hoomd.md.integrate.mode_standard(dt = 0.005);
Ramp_90.py:084  |  nanoparticles = hoomd.group.type(name = 'Nano_Particles', type = 'NP');
notice(2): Group "Nano_Particles" created containing 10 particles
Ramp_90.py:085  |  mesogens = hoomd.group.rigid_center();
notice(2): Group "rigid_center" created containing 1000 particles
notice(2): Group "NP_Mes" created containing 1010 particles
Ramp_90.py:092  |  npt = hoomd.md.integrate.npt(group = groupNP_mes, kT = temp, tau = 4.0, tauP = 4.0, P = p_max);
Ramp_90.py:101  |  log = hoomd.analyze.log(filename = log_file,
                         quantities = ['num_particles',
                                     'ndof',
                                     'translational_ndof',
                                     'rotational_ndof',
                                     'potential_energy',
                                     'kinetic_energy',
                                     'translational_kinetic_energy',
                                     'rotational_kinetic_energy',
                                     'temperature',
                                     'pressure',
                                      'volume'],
                         period = 1e3,
                         overwrite = True);
Ramp_90.py:117  |                 group = hoomd.group.all(),
Ramp_90.py:115  |  gsd = hoomd.dump.gsd(gsd_file,
               period = 1e3,
               group = hoomd.group.all(),
               overwrite = True); 
Ramp_90.py:119  |  meso_gsd = hoomd.dump.gsd(meso_gsd_file,
               period = 1e3,
               group = groupNP_mes,
               overwrite = True); 
Ramp_90.py:130  |  hoomd.run(steps_ramp)
notice(2): -- Neighborlist exclusion statistics -- :
notice(2): Particles with 0 exclusions             : 9010
notice(2): Neighbors included by diameter          : no
notice(2): Neighbors excluded when in the same body: yes
** starting run **
Time 00:00:10 | Step 632101 / 667000 | TPS 496.709 | ETA 00:01:10
Time 00:00:20 | Step 639001 / 667000 | TPS 673.656 | ETA 00:00:41
Time 00:00:30 | Step 644701 / 667000 | TPS 565.517 | ETA 00:00:39
Time 00:00:41 | Step 649801 / 667000 | TPS 493.255 | ETA 00:00:34
Time 00:00:51 | Step 653701 / 667000 | TPS 380.414 | ETA 00:00:34
Time 00:01:01 | Step 657601 / 667000 | TPS 380.375 | ETA 00:00:24
Time 00:01:11 | Step 663896 / 667000 | TPS 629.491 | ETA 00:00:04
Time 00:01:16 | Step 667000 / 667000 | TPS 588.542 | ETA 00:00:00
Average TPS: 521.443
---------
-- Neighborlist stats:
0 normal updates / 135 forced updates / 0 dangerous updates
n_neigh_min: 0 / n_neigh_max: 0 / n_neigh_avg: 0
shortest rebuild period: 100
** run complete **
