[33mWARNING: Skipping user bind, non existent bind point (file) in container: '/usr/bin/nvidia-smi'
[0m[33mWARNING: Skipping user bind, non existent bind point (file) in container: '/usr/bin/nvidia-debugdump'
[0m[33mWARNING: Skipping user bind, non existent bind point (file) in container: '/usr/bin/nvidia-persistenced'
[0m[33mWARNING: Skipping user bind, non existent bind point (file) in container: '/usr/bin/nvidia-cuda-mps-control'
[0m[33mWARNING: Skipping user bind, non existent bind point (file) in container: '/usr/bin/nvidia-cuda-mps-server'
[0mHOOMD-blue 2.3.5 CUDA (8.0) DOUBLE HPMC_MIXED TBB SSE SSE2 
Compiled: 10/08/18
Copyright 2009-2018 The Regents of the University of Michigan.
-----
You are using HOOMD-blue. Please cite the following:
* J A Anderson, C D Lorenz, and A Travesset. "General purpose molecular dynamics
  simulations fully implemented on graphics processing units", Journal of
  Computational Physics 227 (2008) 5342--5359
* J Glaser, T D Nguyen, J A Anderson, P Liu, F Spiga, J A Millan, D C Morse, and
  S C Glotzer. "Strong scaling of general-purpose molecular dynamics simulations
  on GPUs", Computer Physics Communications 192 (2015) 97--107
-----
notice(2): This system is not compute exclusive, using local rank to select GPUs
HOOMD-blue is running on the following GPU(s):
 [0]            Tesla K20m  13 SM_3.5 @ 0.706 GHz, 4743 MiB DRAM
Ramp_5_8.py:044  |  system = hoomd.init.read_gsd(ramp_file, frame = -1);
notice(2): Group "all" created containing 1004 particles
Ramp_5_8.py:048  |  rigid = hoomd.md.constrain.rigid();
notice(2): constrain.rigid(): Creating 1000 rigid bodies (adding 8000 particles)
Ramp_5_8.py:060  |  nl = hoomd.md.nlist.tree();
-----
You are using tree neighbor lists. Please cite the following:
* M P Howard, J A Anderson, A Nikoubashman, S C Glotzer, and A Z
  Panagiotopoulos. "Efficient neighbor list calculation for molecular simulation
  of colloidal systems using graphics processing units", Computer Physics
  Communications 203 (2016) 45--52
-----
Ramp_5_8.py:062  |  lj = hoomd.md.pair.lj(r_cut = 3.5, nlist = nl)
Ramp_5_8.py:063  |  lj.set_params(mode = 'shift')
Ramp_5_8.py:067  |  lj.pair_coeff.set('NP','NP', epsilon = 1.0, sigma = 5.0);
Ramp_5_8.py:068  |  lj.pair_coeff.set('M' ,'M' , epsilon = 1.0, sigma = 1.0);
Ramp_5_8.py:069  |  lj.pair_coeff.set('A' ,'A' , epsilon = 1.0, sigma = 1.0);
Ramp_5_8.py:070  |  lj.pair_coeff.set('M' ,'A' , epsilon = 1.0, sigma = 1.0);
Ramp_5_8.py:071  |  lj.pair_coeff.set('NP','M' , epsilon = 1.0, sigma = 3.0);
Ramp_5_8.py:072  |  lj.pair_coeff.set('NP','A' , epsilon = 1.0, sigma = 3.0);
Ramp_5_8.py:076  |  hoomd.md.integrate.mode_standard(dt = 0.005);
Ramp_5_8.py:080  |  nanoparticles = hoomd.group.type(name = 'Nano_Particles', type = 'NP');
notice(2): Group "Nano_Particles" created containing 4 particles
Ramp_5_8.py:081  |  mesogens = hoomd.group.rigid_center();
notice(2): Group "rigid_center" created containing 1000 particles
notice(2): Group "NP_Mes" created containing 1004 particles
Ramp_5_8.py:088  |  npt = hoomd.md.integrate.npt(group = groupNP_mes, kT = temp, tau = 3.0, tauP = 3.0, P = p_max);
Ramp_5_8.py:097  |  log = hoomd.analyze.log(filename = log_file,
                         quantities = ['num_particles',
                                     'ndof',
                                     'translational_ndof',
                                     'rotational_ndof',
                                     'potential_energy',
                                     'kinetic_energy',
                                     'translational_kinetic_energy',
                                     'rotational_kinetic_energy',
                                     'temperature',
                                     'pressure',
                                      'volume'],
                         period = 1e3,
                         overwrite = True);
Ramp_5_8.py:113  |                 group = hoomd.group.all(),
Ramp_5_8.py:111  |  gsd = hoomd.dump.gsd(gsd_file,
               period = 1e3,
               group = hoomd.group.all(),
               overwrite = True); 
Ramp_5_8.py:115  |  meso_gsd = hoomd.dump.gsd(meso_gsd_file,
               period = 1e3,
               group = groupNP_mes,
               overwrite = True); 
Ramp_5_8.py:126  |  hoomd.run(steps_ramp)
notice(2): -- Neighborlist exclusion statistics -- :
notice(2): Particles with 0 exclusions             : 9004
notice(2): Neighbors included by diameter          : no
notice(2): Neighbors excluded when in the same body: yes
** starting run **
Time 00:00:10 | Step 953050 / 1001000 | TPS 204.926 | ETA 00:03:53
Time 00:00:20 | Step 955364 / 1001000 | TPS 231.189 | ETA 00:03:17
Time 00:00:30 | Step 957655 / 1001000 | TPS 229.058 | ETA 00:03:09
Time 00:00:40 | Step 959964 / 1001000 | TPS 230.872 | ETA 00:02:57
Time 00:00:50 | Step 962283 / 1001000 | TPS 231.895 | ETA 00:02:46
Time 00:01:00 | Step 964590 / 1001000 | TPS 230.511 | ETA 00:02:37
Time 00:01:10 | Step 966886 / 1001000 | TPS 229.48 | ETA 00:02:28
Time 00:01:20 | Step 969173 / 1001000 | TPS 228.492 | ETA 00:02:19
Time 00:01:30 | Step 971484 / 1001000 | TPS 231.093 | ETA 00:02:07
Time 00:01:40 | Step 973790 / 1001000 | TPS 230.593 | ETA 00:01:57
Time 00:01:50 | Step 976092 / 1001000 | TPS 230.08 | ETA 00:01:48
Time 00:02:00 | Step 978373 / 1001000 | TPS 227.87 | ETA 00:01:39
Time 00:02:10 | Step 980685 / 1001000 | TPS 231.004 | ETA 00:01:27
Time 00:02:20 | Step 982980 / 1001000 | TPS 229.304 | ETA 00:01:18
Time 00:02:30 | Step 985305 / 1001000 | TPS 232.351 | ETA 00:01:07
Time 00:02:40 | Step 987551 / 1001000 | TPS 224.45 | ETA 00:00:59
Time 00:02:50 | Step 989821 / 1001000 | TPS 226.931 | ETA 00:00:49
Time 00:03:00 | Step 992081 / 1001000 | TPS 225.99 | ETA 00:00:39
Time 00:03:10 | Step 994381 / 1001000 | TPS 229.84 | ETA 00:00:28
Time 00:03:20 | Step 996614 / 1001000 | TPS 223.273 | ETA 00:00:19
Time 00:03:30 | Step 998866 / 1001000 | TPS 225.091 | ETA 00:00:09
Time 00:03:39 | Step 1001000 / 1001000 | TPS 226.368 | ETA 00:00:00
Average TPS: 227.761
---------
-- Neighborlist stats:
18580 normal updates / 168 forced updates / 0 dangerous updates
n_neigh_min: 71 / n_neigh_max: 246 / n_neigh_avg: 205.513
shortest rebuild period: 2
** run complete **
[33mWARNING: Skipping user bind, non existent bind point (file) in container: '/usr/bin/nvidia-smi'
[0m[33mWARNING: Skipping user bind, non existent bind point (file) in container: '/usr/bin/nvidia-debugdump'
[0m[33mWARNING: Skipping user bind, non existent bind point (file) in container: '/usr/bin/nvidia-persistenced'
[0m[33mWARNING: Skipping user bind, non existent bind point (file) in container: '/usr/bin/nvidia-cuda-mps-control'
[0m[33mWARNING: Skipping user bind, non existent bind point (file) in container: '/usr/bin/nvidia-cuda-mps-server'
[0mHOOMD-blue 2.3.5 CUDA (8.0) DOUBLE HPMC_MIXED TBB SSE SSE2 
Compiled: 10/08/18
Copyright 2009-2018 The Regents of the University of Michigan.
-----
You are using HOOMD-blue. Please cite the following:
* J A Anderson, C D Lorenz, and A Travesset. "General purpose molecular dynamics
  simulations fully implemented on graphics processing units", Journal of
  Computational Physics 227 (2008) 5342--5359
* J Glaser, T D Nguyen, J A Anderson, P Liu, F Spiga, J A Millan, D C Morse, and
  S C Glotzer. "Strong scaling of general-purpose molecular dynamics simulations
  on GPUs", Computer Physics Communications 192 (2015) 97--107
-----
notice(2): This system is not compute exclusive, using local rank to select GPUs
HOOMD-blue is running on the following GPU(s):
 [0]            Tesla K20m  13 SM_3.5 @ 0.706 GHz, 4743 MiB DRAM
Ramp_6_0.py:044  |  system = hoomd.init.read_gsd(ramp_file, frame = -1);
notice(2): Group "all" created containing 1004 particles
Ramp_6_0.py:048  |  rigid = hoomd.md.constrain.rigid();
notice(2): constrain.rigid(): Creating 1000 rigid bodies (adding 8000 particles)
Ramp_6_0.py:060  |  nl = hoomd.md.nlist.tree();
-----
You are using tree neighbor lists. Please cite the following:
* M P Howard, J A Anderson, A Nikoubashman, S C Glotzer, and A Z
  Panagiotopoulos. "Efficient neighbor list calculation for molecular simulation
  of colloidal systems using graphics processing units", Computer Physics
  Communications 203 (2016) 45--52
-----
Ramp_6_0.py:062  |  lj = hoomd.md.pair.lj(r_cut = 3.5, nlist = nl)
Ramp_6_0.py:063  |  lj.set_params(mode = 'shift')
Ramp_6_0.py:067  |  lj.pair_coeff.set('NP','NP', epsilon = 1.0, sigma = 5.0);
Ramp_6_0.py:068  |  lj.pair_coeff.set('M' ,'M' , epsilon = 1.0, sigma = 1.0);
Ramp_6_0.py:069  |  lj.pair_coeff.set('A' ,'A' , epsilon = 1.0, sigma = 1.0);
Ramp_6_0.py:070  |  lj.pair_coeff.set('M' ,'A' , epsilon = 1.0, sigma = 1.0);
Ramp_6_0.py:071  |  lj.pair_coeff.set('NP','M' , epsilon = 1.0, sigma = 3.0);
Ramp_6_0.py:072  |  lj.pair_coeff.set('NP','A' , epsilon = 1.0, sigma = 3.0);
Ramp_6_0.py:076  |  hoomd.md.integrate.mode_standard(dt = 0.005);
Ramp_6_0.py:080  |  nanoparticles = hoomd.group.type(name = 'Nano_Particles', type = 'NP');
notice(2): Group "Nano_Particles" created containing 4 particles
Ramp_6_0.py:081  |  mesogens = hoomd.group.rigid_center();
notice(2): Group "rigid_center" created containing 1000 particles
notice(2): Group "NP_Mes" created containing 1004 particles
Ramp_6_0.py:088  |  npt = hoomd.md.integrate.npt(group = groupNP_mes, kT = temp, tau = 3.0, tauP = 3.0, P = p_max);
Ramp_6_0.py:097  |  log = hoomd.analyze.log(filename = log_file,
                         quantities = ['num_particles',
                                     'ndof',
                                     'translational_ndof',
                                     'rotational_ndof',
                                     'potential_energy',
                                     'kinetic_energy',
                                     'translational_kinetic_energy',
                                     'rotational_kinetic_energy',
                                     'temperature',
                                     'pressure',
                                      'volume'],
                         period = 1e3,
                         overwrite = True);
Ramp_6_0.py:113  |                 group = hoomd.group.all(),
Ramp_6_0.py:111  |  gsd = hoomd.dump.gsd(gsd_file,
               period = 1e3,
               group = hoomd.group.all(),
               overwrite = True); 
Ramp_6_0.py:115  |  meso_gsd = hoomd.dump.gsd(meso_gsd_file,
               period = 1e3,
               group = groupNP_mes,
               overwrite = True); 
Ramp_6_0.py:126  |  hoomd.run(steps_ramp)
notice(2): -- Neighborlist exclusion statistics -- :
notice(2): Particles with 0 exclusions             : 9004
notice(2): Neighbors included by diameter          : no
notice(2): Neighbors excluded when in the same body: yes
** starting run **
Time 00:00:10 | Step 1001951 / 1050000 | TPS 195.056 | ETA 00:04:06
Time 00:00:20 | Step 1004132 / 1050000 | TPS 217.972 | ETA 00:03:30
Time 00:00:30 | Step 1006293 / 1050000 | TPS 215.924 | ETA 00:03:22
Time 00:00:40 | Step 1008473 / 1050000 | TPS 217.832 | ETA 00:03:10
Time 00:00:50 | Step 1010708 / 1050000 | TPS 223.461 | ETA 00:02:55
Time 00:01:00 | Step 1012887 / 1050000 | TPS 217.825 | ETA 00:02:50
Time 00:01:10 | Step 1015023 / 1050000 | TPS 213.554 | ETA 00:02:43
Time 00:01:20 | Step 1017197 / 1050000 | TPS 217.211 | ETA 00:02:31
Time 00:01:30 | Step 1019286 / 1050000 | TPS 208.854 | ETA 00:02:27
Time 00:01:40 | Step 1021441 / 1050000 | TPS 215.31 | ETA 00:02:12
Time 00:01:50 | Step 1023543 / 1050000 | TPS 210.066 | ETA 00:02:05
Time 00:02:00 | Step 1025648 / 1050000 | TPS 210.487 | ETA 00:01:55
Time 00:02:10 | Step 1027754 / 1050000 | TPS 210.586 | ETA 00:01:45
Time 00:02:20 | Step 1029901 / 1050000 | TPS 214.459 | ETA 00:01:33
Time 00:02:30 | Step 1032047 / 1050000 | TPS 214.577 | ETA 00:01:23
Time 00:02:40 | Step 1034181 / 1050000 | TPS 213.311 | ETA 00:01:14
Time 00:02:50 | Step 1036325 / 1050000 | TPS 214.398 | ETA 00:01:03
Time 00:03:00 | Step 1038440 / 1050000 | TPS 211.489 | ETA 00:00:54
Time 00:03:10 | Step 1040578 / 1050000 | TPS 213.633 | ETA 00:00:44
Time 00:03:20 | Step 1042671 / 1050000 | TPS 209.125 | ETA 00:00:35
Time 00:03:30 | Step 1044761 / 1050000 | TPS 208.935 | ETA 00:00:25
Time 00:03:40 | Step 1046848 / 1050000 | TPS 208.474 | ETA 00:00:15
Time 00:03:50 | Step 1048941 / 1050000 | TPS 209.204 | ETA 00:00:05
Time 00:03:55 | Step 1050000 / 1050000 | TPS 207.2 | ETA 00:00:00
Average TPS: 212.566
---------
-- Neighborlist stats:
19253 normal updates / 167 forced updates / 0 dangerous updates
n_neigh_min: 80 / n_neigh_max: 238 / n_neigh_avg: 199.948
shortest rebuild period: 2
** run complete **
[33mWARNING: Skipping user bind, non existent bind point (file) in container: '/usr/bin/nvidia-smi'
[0m[33mWARNING: Skipping user bind, non existent bind point (file) in container: '/usr/bin/nvidia-debugdump'
[0m[33mWARNING: Skipping user bind, non existent bind point (file) in container: '/usr/bin/nvidia-persistenced'
[0m[33mWARNING: Skipping user bind, non existent bind point (file) in container: '/usr/bin/nvidia-cuda-mps-control'
[0m[33mWARNING: Skipping user bind, non existent bind point (file) in container: '/usr/bin/nvidia-cuda-mps-server'
[0mHOOMD-blue 2.3.5 CUDA (8.0) DOUBLE HPMC_MIXED TBB SSE SSE2 
Compiled: 10/08/18
Copyright 2009-2018 The Regents of the University of Michigan.
-----
You are using HOOMD-blue. Please cite the following:
* J A Anderson, C D Lorenz, and A Travesset. "General purpose molecular dynamics
  simulations fully implemented on graphics processing units", Journal of
  Computational Physics 227 (2008) 5342--5359
* J Glaser, T D Nguyen, J A Anderson, P Liu, F Spiga, J A Millan, D C Morse, and
  S C Glotzer. "Strong scaling of general-purpose molecular dynamics simulations
  on GPUs", Computer Physics Communications 192 (2015) 97--107
-----
notice(2): This system is not compute exclusive, using local rank to select GPUs
HOOMD-blue is running on the following GPU(s):
 [0]            Tesla K20m  13 SM_3.5 @ 0.706 GHz, 4743 MiB DRAM
Ramp_6_2.py:044  |  system = hoomd.init.read_gsd(ramp_file, frame = -1);
notice(2): Group "all" created containing 1004 particles
Ramp_6_2.py:048  |  rigid = hoomd.md.constrain.rigid();
notice(2): constrain.rigid(): Creating 1000 rigid bodies (adding 8000 particles)
Ramp_6_2.py:060  |  nl = hoomd.md.nlist.tree();
-----
You are using tree neighbor lists. Please cite the following:
* M P Howard, J A Anderson, A Nikoubashman, S C Glotzer, and A Z
  Panagiotopoulos. "Efficient neighbor list calculation for molecular simulation
  of colloidal systems using graphics processing units", Computer Physics
  Communications 203 (2016) 45--52
-----
Ramp_6_2.py:062  |  lj = hoomd.md.pair.lj(r_cut = 3.5, nlist = nl)
Ramp_6_2.py:063  |  lj.set_params(mode = 'shift')
Ramp_6_2.py:067  |  lj.pair_coeff.set('NP','NP', epsilon = 1.0, sigma = 5.0);
Ramp_6_2.py:068  |  lj.pair_coeff.set('M' ,'M' , epsilon = 1.0, sigma = 1.0);
Ramp_6_2.py:069  |  lj.pair_coeff.set('A' ,'A' , epsilon = 1.0, sigma = 1.0);
Ramp_6_2.py:070  |  lj.pair_coeff.set('M' ,'A' , epsilon = 1.0, sigma = 1.0);
Ramp_6_2.py:071  |  lj.pair_coeff.set('NP','M' , epsilon = 1.0, sigma = 3.0);
Ramp_6_2.py:072  |  lj.pair_coeff.set('NP','A' , epsilon = 1.0, sigma = 3.0);
Ramp_6_2.py:076  |  hoomd.md.integrate.mode_standard(dt = 0.005);
Ramp_6_2.py:080  |  nanoparticles = hoomd.group.type(name = 'Nano_Particles', type = 'NP');
notice(2): Group "Nano_Particles" created containing 4 particles
Ramp_6_2.py:081  |  mesogens = hoomd.group.rigid_center();
notice(2): Group "rigid_center" created containing 1000 particles
notice(2): Group "NP_Mes" created containing 1004 particles
Ramp_6_2.py:088  |  npt = hoomd.md.integrate.npt(group = groupNP_mes, kT = temp, tau = 3.0, tauP = 3.0, P = p_max);
Ramp_6_2.py:097  |  log = hoomd.analyze.log(filename = log_file,
                         quantities = ['num_particles',
                                     'ndof',
                                     'translational_ndof',
                                     'rotational_ndof',
                                     'potential_energy',
                                     'kinetic_energy',
                                     'translational_kinetic_energy',
                                     'rotational_kinetic_energy',
                                     'temperature',
                                     'pressure',
                                      'volume'],
                         period = 1e3,
                         overwrite = True);
Ramp_6_2.py:113  |                 group = hoomd.group.all(),
Ramp_6_2.py:111  |  gsd = hoomd.dump.gsd(gsd_file,
               period = 1e3,
               group = hoomd.group.all(),
               overwrite = True); 
Ramp_6_2.py:115  |  meso_gsd = hoomd.dump.gsd(meso_gsd_file,
               period = 1e3,
               group = groupNP_mes,
               overwrite = True); 
Ramp_6_2.py:126  |  hoomd.run(steps_ramp)
notice(2): -- Neighborlist exclusion statistics -- :
notice(2): Particles with 0 exclusions             : 9004
notice(2): Neighbors included by diameter          : no
notice(2): Neighbors excluded when in the same body: yes
** starting run **
Time 00:00:10 | Step 1051008 / 1099000 | TPS 200.729 | ETA 00:03:59
Time 00:00:20 | Step 1053179 / 1099000 | TPS 217.041 | ETA 00:03:31
Time 00:00:30 | Step 1055360 / 1099000 | TPS 217.985 | ETA 00:03:20
Time 00:00:40 | Step 1057609 / 1099000 | TPS 224.76 | ETA 00:03:04
Time 00:00:50 | Step 1059797 / 1099000 | TPS 218.666 | ETA 00:02:59
Time 00:01:00 | Step 1061991 / 1099000 | TPS 219.326 | ETA 00:02:48
Time 00:01:10 | Step 1064175 / 1099000 | TPS 218.233 | ETA 00:02:39
Time 00:01:20 | Step 1066380 / 1099000 | TPS 220.335 | ETA 00:02:28
Time 00:01:30 | Step 1068539 / 1099000 | TPS 215.868 | ETA 00:02:21
Time 00:01:40 | Step 1070700 / 1099000 | TPS 216.036 | ETA 00:02:10
Time 00:01:50 | Step 1072837 / 1099000 | TPS 213.619 | ETA 00:02:02
Time 00:02:00 | Step 1074972 / 1099000 | TPS 213.467 | ETA 00:01:52
Time 00:02:10 | Step 1080601 / 1099000 | TPS 550.753 | ETA 00:00:33
Time 00:02:20 | Step 1087245 / 1099000 | TPS 664.383 | ETA 00:00:17
Time 00:02:30 | Step 1093907 / 1099000 | TPS 666.19 | ETA 00:00:07
Time 00:02:38 | Step 1099000 / 1099000 | TPS 660.949 | ETA 00:00:00
Average TPS: 316.498
---------
-- Neighborlist stats:
10465 normal updates / 168 forced updates / 0 dangerous updates
n_neigh_min: 0 / n_neigh_max: 0 / n_neigh_avg: 0
shortest rebuild period: 1
** run complete **
[33mWARNING: Skipping user bind, non existent bind point (file) in container: '/usr/bin/nvidia-smi'
[0m[33mWARNING: Skipping user bind, non existent bind point (file) in container: '/usr/bin/nvidia-debugdump'
[0m[33mWARNING: Skipping user bind, non existent bind point (file) in container: '/usr/bin/nvidia-persistenced'
[0m[33mWARNING: Skipping user bind, non existent bind point (file) in container: '/usr/bin/nvidia-cuda-mps-control'
[0m[33mWARNING: Skipping user bind, non existent bind point (file) in container: '/usr/bin/nvidia-cuda-mps-server'
[0mHOOMD-blue 2.3.5 CUDA (8.0) DOUBLE HPMC_MIXED TBB SSE SSE2 
Compiled: 10/08/18
Copyright 2009-2018 The Regents of the University of Michigan.
-----
You are using HOOMD-blue. Please cite the following:
* J A Anderson, C D Lorenz, and A Travesset. "General purpose molecular dynamics
  simulations fully implemented on graphics processing units", Journal of
  Computational Physics 227 (2008) 5342--5359
* J Glaser, T D Nguyen, J A Anderson, P Liu, F Spiga, J A Millan, D C Morse, and
  S C Glotzer. "Strong scaling of general-purpose molecular dynamics simulations
  on GPUs", Computer Physics Communications 192 (2015) 97--107
-----
notice(2): This system is not compute exclusive, using local rank to select GPUs
HOOMD-blue is running on the following GPU(s):
 [0]            Tesla K20m  13 SM_3.5 @ 0.706 GHz, 4743 MiB DRAM
Ramp_6_4.py:044  |  system = hoomd.init.read_gsd(ramp_file, frame = -1);
notice(2): Group "all" created containing 1004 particles
Ramp_6_4.py:048  |  rigid = hoomd.md.constrain.rigid();
notice(2): constrain.rigid(): Creating 1000 rigid bodies (adding 8000 particles)
Ramp_6_4.py:060  |  nl = hoomd.md.nlist.tree();
-----
You are using tree neighbor lists. Please cite the following:
* M P Howard, J A Anderson, A Nikoubashman, S C Glotzer, and A Z
  Panagiotopoulos. "Efficient neighbor list calculation for molecular simulation
  of colloidal systems using graphics processing units", Computer Physics
  Communications 203 (2016) 45--52
-----
Ramp_6_4.py:062  |  lj = hoomd.md.pair.lj(r_cut = 3.5, nlist = nl)
Ramp_6_4.py:063  |  lj.set_params(mode = 'shift')
Ramp_6_4.py:067  |  lj.pair_coeff.set('NP','NP', epsilon = 1.0, sigma = 5.0);
Ramp_6_4.py:068  |  lj.pair_coeff.set('M' ,'M' , epsilon = 1.0, sigma = 1.0);
Ramp_6_4.py:069  |  lj.pair_coeff.set('A' ,'A' , epsilon = 1.0, sigma = 1.0);
Ramp_6_4.py:070  |  lj.pair_coeff.set('M' ,'A' , epsilon = 1.0, sigma = 1.0);
Ramp_6_4.py:071  |  lj.pair_coeff.set('NP','M' , epsilon = 1.0, sigma = 3.0);
Ramp_6_4.py:072  |  lj.pair_coeff.set('NP','A' , epsilon = 1.0, sigma = 3.0);
Ramp_6_4.py:076  |  hoomd.md.integrate.mode_standard(dt = 0.005);
Ramp_6_4.py:080  |  nanoparticles = hoomd.group.type(name = 'Nano_Particles', type = 'NP');
notice(2): Group "Nano_Particles" created containing 4 particles
Ramp_6_4.py:081  |  mesogens = hoomd.group.rigid_center();
notice(2): Group "rigid_center" created containing 1000 particles
notice(2): Group "NP_Mes" created containing 1004 particles
Ramp_6_4.py:088  |  npt = hoomd.md.integrate.npt(group = groupNP_mes, kT = temp, tau = 3.0, tauP = 3.0, P = p_max);
Ramp_6_4.py:097  |  log = hoomd.analyze.log(filename = log_file,
                         quantities = ['num_particles',
                                     'ndof',
                                     'translational_ndof',
                                     'rotational_ndof',
                                     'potential_energy',
                                     'kinetic_energy',
                                     'translational_kinetic_energy',
                                     'rotational_kinetic_energy',
                                     'temperature',
                                     'pressure',
                                      'volume'],
                         period = 1e3,
                         overwrite = True);
Ramp_6_4.py:113  |                 group = hoomd.group.all(),
Ramp_6_4.py:111  |  gsd = hoomd.dump.gsd(gsd_file,
               period = 1e3,
               group = hoomd.group.all(),
               overwrite = True); 
Ramp_6_4.py:115  |  meso_gsd = hoomd.dump.gsd(meso_gsd_file,
               period = 1e3,
               group = groupNP_mes,
               overwrite = True); 
Ramp_6_4.py:126  |  hoomd.run(steps_ramp)
notice(2): -- Neighborlist exclusion statistics -- :
notice(2): Particles with 0 exclusions             : 9004
notice(2): Neighbors included by diameter          : no
notice(2): Neighbors excluded when in the same body: yes
** starting run **
Time 00:00:10 | Step 1103101 / 1148000 | TPS 496.953 | ETA 00:01:30
Time 00:00:20 | Step 1110001 / 1148000 | TPS 675.612 | ETA 00:00:56
Time 00:00:30 | Step 1115701 / 1148000 | TPS 566.975 | ETA 00:00:56
Time 00:00:41 | Step 1120801 / 1148000 | TPS 494.386 | ETA 00:00:55
Time 00:00:51 | Step 1124701 / 1148000 | TPS 381.131 | ETA 00:01:01
Time 00:01:01 | Step 1128601 / 1148000 | TPS 381.823 | ETA 00:00:50
Time 00:01:11 | Step 1134901 / 1148000 | TPS 609.665 | ETA 00:00:21
Time 00:01:22 | Step 1141201 / 1148000 | TPS 617.683 | ETA 00:00:11
Time 00:01:32 | Step 1147801 / 1148000 | TPS 640.952 | ETA 00:00:00
Time 00:01:32 | Step 1148000 / 1148000 | TPS 2504.94 | ETA 00:00:00
Average TPS: 542.281
---------
-- Neighborlist stats:
0 normal updates / 168 forced updates / 0 dangerous updates
n_neigh_min: 0 / n_neigh_max: 0 / n_neigh_avg: 0
shortest rebuild period: 100
** run complete **
[33mWARNING: Skipping user bind, non existent bind point (file) in container: '/usr/bin/nvidia-smi'
[0m[33mWARNING: Skipping user bind, non existent bind point (file) in container: '/usr/bin/nvidia-debugdump'
[0m[33mWARNING: Skipping user bind, non existent bind point (file) in container: '/usr/bin/nvidia-persistenced'
[0m[33mWARNING: Skipping user bind, non existent bind point (file) in container: '/usr/bin/nvidia-cuda-mps-control'
[0m[33mWARNING: Skipping user bind, non existent bind point (file) in container: '/usr/bin/nvidia-cuda-mps-server'
[0mHOOMD-blue 2.3.5 CUDA (8.0) DOUBLE HPMC_MIXED TBB SSE SSE2 
Compiled: 10/08/18
Copyright 2009-2018 The Regents of the University of Michigan.
-----
You are using HOOMD-blue. Please cite the following:
* J A Anderson, C D Lorenz, and A Travesset. "General purpose molecular dynamics
  simulations fully implemented on graphics processing units", Journal of
  Computational Physics 227 (2008) 5342--5359
* J Glaser, T D Nguyen, J A Anderson, P Liu, F Spiga, J A Millan, D C Morse, and
  S C Glotzer. "Strong scaling of general-purpose molecular dynamics simulations
  on GPUs", Computer Physics Communications 192 (2015) 97--107
-----
notice(2): This system is not compute exclusive, using local rank to select GPUs
HOOMD-blue is running on the following GPU(s):
 [0]            Tesla K20m  13 SM_3.5 @ 0.706 GHz, 4743 MiB DRAM
Ramp_6_6.py:044  |  system = hoomd.init.read_gsd(ramp_file, frame = -1);
notice(2): Group "all" created containing 1004 particles
Ramp_6_6.py:048  |  rigid = hoomd.md.constrain.rigid();
notice(2): constrain.rigid(): Creating 1000 rigid bodies (adding 8000 particles)
Ramp_6_6.py:060  |  nl = hoomd.md.nlist.tree();
-----
You are using tree neighbor lists. Please cite the following:
* M P Howard, J A Anderson, A Nikoubashman, S C Glotzer, and A Z
  Panagiotopoulos. "Efficient neighbor list calculation for molecular simulation
  of colloidal systems using graphics processing units", Computer Physics
  Communications 203 (2016) 45--52
-----
Ramp_6_6.py:062  |  lj = hoomd.md.pair.lj(r_cut = 3.5, nlist = nl)
Ramp_6_6.py:063  |  lj.set_params(mode = 'shift')
Ramp_6_6.py:067  |  lj.pair_coeff.set('NP','NP', epsilon = 1.0, sigma = 5.0);
Ramp_6_6.py:068  |  lj.pair_coeff.set('M' ,'M' , epsilon = 1.0, sigma = 1.0);
Ramp_6_6.py:069  |  lj.pair_coeff.set('A' ,'A' , epsilon = 1.0, sigma = 1.0);
Ramp_6_6.py:070  |  lj.pair_coeff.set('M' ,'A' , epsilon = 1.0, sigma = 1.0);
Ramp_6_6.py:071  |  lj.pair_coeff.set('NP','M' , epsilon = 1.0, sigma = 3.0);
Ramp_6_6.py:072  |  lj.pair_coeff.set('NP','A' , epsilon = 1.0, sigma = 3.0);
Ramp_6_6.py:076  |  hoomd.md.integrate.mode_standard(dt = 0.005);
Ramp_6_6.py:080  |  nanoparticles = hoomd.group.type(name = 'Nano_Particles', type = 'NP');
notice(2): Group "Nano_Particles" created containing 4 particles
Ramp_6_6.py:081  |  mesogens = hoomd.group.rigid_center();
notice(2): Group "rigid_center" created containing 1000 particles
notice(2): Group "NP_Mes" created containing 1004 particles
Ramp_6_6.py:088  |  npt = hoomd.md.integrate.npt(group = groupNP_mes, kT = temp, tau = 3.0, tauP = 3.0, P = p_max);
Ramp_6_6.py:097  |  log = hoomd.analyze.log(filename = log_file,
                         quantities = ['num_particles',
                                     'ndof',
                                     'translational_ndof',
                                     'rotational_ndof',
                                     'potential_energy',
                                     'kinetic_energy',
                                     'translational_kinetic_energy',
                                     'rotational_kinetic_energy',
                                     'temperature',
                                     'pressure',
                                      'volume'],
                         period = 1e3,
                         overwrite = True);
Ramp_6_6.py:113  |                 group = hoomd.group.all(),
Ramp_6_6.py:111  |  gsd = hoomd.dump.gsd(gsd_file,
               period = 1e3,
               group = hoomd.group.all(),
               overwrite = True); 
Ramp_6_6.py:115  |  meso_gsd = hoomd.dump.gsd(meso_gsd_file,
               period = 1e3,
               group = groupNP_mes,
               overwrite = True); 
Ramp_6_6.py:126  |  hoomd.run(steps_ramp)
notice(2): -- Neighborlist exclusion statistics -- :
notice(2): Particles with 0 exclusions             : 9004
notice(2): Neighbors included by diameter          : no
notice(2): Neighbors excluded when in the same body: yes
** starting run **
Time 00:00:10 | Step 1152209 / 1197000 | TPS 520.898 | ETA 00:01:25
Time 00:00:20 | Step 1158901 / 1197000 | TPS 661.335 | ETA 00:00:57
Time 00:00:30 | Step 1164601 / 1197000 | TPS 566.942 | ETA 00:00:57
Time 00:00:40 | Step 1169703 / 1197000 | TPS 510.194 | ETA 00:00:53
Time 00:00:50 | Step 1173601 / 1197000 | TPS 381.189 | ETA 00:01:01
Time 00:01:00 | Step 1177501 / 1197000 | TPS 381.375 | ETA 00:00:51
Time 00:01:10 | Step 1183501 / 1197000 | TPS 591.018 | ETA 00:00:22
Time 00:01:21 | Step 1189801 / 1197000 | TPS 617.757 | ETA 00:00:11
Time 00:01:31 | Step 1196184 / 1197000 | TPS 638.296 | ETA 00:00:01
Time 00:01:32 | Step 1197000 / 1197000 | TPS 851.415 | ETA 00:00:00
Average TPS: 543.87
---------
-- Neighborlist stats:
0 normal updates / 167 forced updates / 0 dangerous updates
n_neigh_min: 0 / n_neigh_max: 0 / n_neigh_avg: 0
shortest rebuild period: 100
** run complete **
[33mWARNING: Skipping user bind, non existent bind point (file) in container: '/usr/bin/nvidia-smi'
[0m[33mWARNING: Skipping user bind, non existent bind point (file) in container: '/usr/bin/nvidia-debugdump'
[0m[33mWARNING: Skipping user bind, non existent bind point (file) in container: '/usr/bin/nvidia-persistenced'
[0m[33mWARNING: Skipping user bind, non existent bind point (file) in container: '/usr/bin/nvidia-cuda-mps-control'
[0m[33mWARNING: Skipping user bind, non existent bind point (file) in container: '/usr/bin/nvidia-cuda-mps-server'
[0mHOOMD-blue 2.3.5 CUDA (8.0) DOUBLE HPMC_MIXED TBB SSE SSE2 
Compiled: 10/08/18
Copyright 2009-2018 The Regents of the University of Michigan.
-----
You are using HOOMD-blue. Please cite the following:
* J A Anderson, C D Lorenz, and A Travesset. "General purpose molecular dynamics
  simulations fully implemented on graphics processing units", Journal of
  Computational Physics 227 (2008) 5342--5359
* J Glaser, T D Nguyen, J A Anderson, P Liu, F Spiga, J A Millan, D C Morse, and
  S C Glotzer. "Strong scaling of general-purpose molecular dynamics simulations
  on GPUs", Computer Physics Communications 192 (2015) 97--107
-----
notice(2): This system is not compute exclusive, using local rank to select GPUs
HOOMD-blue is running on the following GPU(s):
 [0]            Tesla K20m  13 SM_3.5 @ 0.706 GHz, 4743 MiB DRAM
Ramp_6_8.py:044  |  system = hoomd.init.read_gsd(ramp_file, frame = -1);
notice(2): Group "all" created containing 1004 particles
Ramp_6_8.py:048  |  rigid = hoomd.md.constrain.rigid();
notice(2): constrain.rigid(): Creating 1000 rigid bodies (adding 8000 particles)
Ramp_6_8.py:060  |  nl = hoomd.md.nlist.tree();
-----
You are using tree neighbor lists. Please cite the following:
* M P Howard, J A Anderson, A Nikoubashman, S C Glotzer, and A Z
  Panagiotopoulos. "Efficient neighbor list calculation for molecular simulation
  of colloidal systems using graphics processing units", Computer Physics
  Communications 203 (2016) 45--52
-----
Ramp_6_8.py:062  |  lj = hoomd.md.pair.lj(r_cut = 3.5, nlist = nl)
Ramp_6_8.py:063  |  lj.set_params(mode = 'shift')
Ramp_6_8.py:067  |  lj.pair_coeff.set('NP','NP', epsilon = 1.0, sigma = 5.0);
Ramp_6_8.py:068  |  lj.pair_coeff.set('M' ,'M' , epsilon = 1.0, sigma = 1.0);
Ramp_6_8.py:069  |  lj.pair_coeff.set('A' ,'A' , epsilon = 1.0, sigma = 1.0);
Ramp_6_8.py:070  |  lj.pair_coeff.set('M' ,'A' , epsilon = 1.0, sigma = 1.0);
Ramp_6_8.py:071  |  lj.pair_coeff.set('NP','M' , epsilon = 1.0, sigma = 3.0);
Ramp_6_8.py:072  |  lj.pair_coeff.set('NP','A' , epsilon = 1.0, sigma = 3.0);
Ramp_6_8.py:076  |  hoomd.md.integrate.mode_standard(dt = 0.005);
Ramp_6_8.py:080  |  nanoparticles = hoomd.group.type(name = 'Nano_Particles', type = 'NP');
notice(2): Group "Nano_Particles" created containing 4 particles
Ramp_6_8.py:081  |  mesogens = hoomd.group.rigid_center();
notice(2): Group "rigid_center" created containing 1000 particles
notice(2): Group "NP_Mes" created containing 1004 particles
Ramp_6_8.py:088  |  npt = hoomd.md.integrate.npt(group = groupNP_mes, kT = temp, tau = 3.0, tauP = 3.0, P = p_max);
Ramp_6_8.py:097  |  log = hoomd.analyze.log(filename = log_file,
                         quantities = ['num_particles',
                                     'ndof',
                                     'translational_ndof',
                                     'rotational_ndof',
                                     'potential_energy',
                                     'kinetic_energy',
                                     'translational_kinetic_energy',
                                     'rotational_kinetic_energy',
                                     'temperature',
                                     'pressure',
                                      'volume'],
                         period = 1e3,
                         overwrite = True);
Ramp_6_8.py:113  |                 group = hoomd.group.all(),
Ramp_6_8.py:111  |  gsd = hoomd.dump.gsd(gsd_file,
               period = 1e3,
               group = hoomd.group.all(),
               overwrite = True); 
Ramp_6_8.py:115  |  meso_gsd = hoomd.dump.gsd(meso_gsd_file,
               period = 1e3,
               group = groupNP_mes,
               overwrite = True); 
Ramp_6_8.py:126  |  hoomd.run(steps_ramp)
notice(2): -- Neighborlist exclusion statistics -- :
notice(2): Particles with 0 exclusions             : 9004
notice(2): Neighbors included by diameter          : no
notice(2): Neighbors excluded when in the same body: yes
** starting run **
Time 00:00:10 | Step 1201201 / 1246000 | TPS 505.005 | ETA 00:01:28
Time 00:00:20 | Step 1208101 / 1246000 | TPS 675.668 | ETA 00:00:56
Time 00:00:30 | Step 1213801 / 1246000 | TPS 567.12 | ETA 00:00:56
Time 00:00:41 | Step 1218901 / 1246000 | TPS 494.307 | ETA 00:00:54
Time 00:00:51 | Step 1222801 / 1246000 | TPS 381.2 | ETA 00:01:00
Time 00:01:01 | Step 1226701 / 1246000 | TPS 381.761 | ETA 00:00:50
Time 00:01:11 | Step 1233001 / 1246000 | TPS 609.141 | ETA 00:00:21
Time 00:01:22 | Step 1239301 / 1246000 | TPS 617.866 | ETA 00:00:10
Time 00:01:32 | Step 1245901 / 1246000 | TPS 640.802 | ETA 00:00:00
Time 00:01:32 | Step 1246000 / 1246000 | TPS 2513.14 | ETA 00:00:00
Average TPS: 542.277
---------
-- Neighborlist stats:
0 normal updates / 168 forced updates / 0 dangerous updates
n_neigh_min: 0 / n_neigh_max: 0 / n_neigh_avg: 0
shortest rebuild period: 100
** run complete **
[33mWARNING: Skipping user bind, non existent bind point (file) in container: '/usr/bin/nvidia-smi'
[0m[33mWARNING: Skipping user bind, non existent bind point (file) in container: '/usr/bin/nvidia-debugdump'
[0m[33mWARNING: Skipping user bind, non existent bind point (file) in container: '/usr/bin/nvidia-persistenced'
[0m[33mWARNING: Skipping user bind, non existent bind point (file) in container: '/usr/bin/nvidia-cuda-mps-control'
[0m[33mWARNING: Skipping user bind, non existent bind point (file) in container: '/usr/bin/nvidia-cuda-mps-server'
[0mHOOMD-blue 2.3.5 CUDA (8.0) DOUBLE HPMC_MIXED TBB SSE SSE2 
Compiled: 10/08/18
Copyright 2009-2018 The Regents of the University of Michigan.
-----
You are using HOOMD-blue. Please cite the following:
* J A Anderson, C D Lorenz, and A Travesset. "General purpose molecular dynamics
  simulations fully implemented on graphics processing units", Journal of
  Computational Physics 227 (2008) 5342--5359
* J Glaser, T D Nguyen, J A Anderson, P Liu, F Spiga, J A Millan, D C Morse, and
  S C Glotzer. "Strong scaling of general-purpose molecular dynamics simulations
  on GPUs", Computer Physics Communications 192 (2015) 97--107
-----
notice(2): This system is not compute exclusive, using local rank to select GPUs
HOOMD-blue is running on the following GPU(s):
 [0]            Tesla K20m  13 SM_3.5 @ 0.706 GHz, 4743 MiB DRAM
Ramp_7_0.py:044  |  system = hoomd.init.read_gsd(ramp_file, frame = -1);
notice(2): Group "all" created containing 1004 particles
Ramp_7_0.py:048  |  rigid = hoomd.md.constrain.rigid();
notice(2): constrain.rigid(): Creating 1000 rigid bodies (adding 8000 particles)
Ramp_7_0.py:060  |  nl = hoomd.md.nlist.tree();
-----
You are using tree neighbor lists. Please cite the following:
* M P Howard, J A Anderson, A Nikoubashman, S C Glotzer, and A Z
  Panagiotopoulos. "Efficient neighbor list calculation for molecular simulation
  of colloidal systems using graphics processing units", Computer Physics
  Communications 203 (2016) 45--52
-----
Ramp_7_0.py:062  |  lj = hoomd.md.pair.lj(r_cut = 3.5, nlist = nl)
Ramp_7_0.py:063  |  lj.set_params(mode = 'shift')
Ramp_7_0.py:067  |  lj.pair_coeff.set('NP','NP', epsilon = 1.0, sigma = 5.0);
Ramp_7_0.py:068  |  lj.pair_coeff.set('M' ,'M' , epsilon = 1.0, sigma = 1.0);
Ramp_7_0.py:069  |  lj.pair_coeff.set('A' ,'A' , epsilon = 1.0, sigma = 1.0);
Ramp_7_0.py:070  |  lj.pair_coeff.set('M' ,'A' , epsilon = 1.0, sigma = 1.0);
Ramp_7_0.py:071  |  lj.pair_coeff.set('NP','M' , epsilon = 1.0, sigma = 3.0);
Ramp_7_0.py:072  |  lj.pair_coeff.set('NP','A' , epsilon = 1.0, sigma = 3.0);
Ramp_7_0.py:076  |  hoomd.md.integrate.mode_standard(dt = 0.005);
Ramp_7_0.py:080  |  nanoparticles = hoomd.group.type(name = 'Nano_Particles', type = 'NP');
notice(2): Group "Nano_Particles" created containing 4 particles
Ramp_7_0.py:081  |  mesogens = hoomd.group.rigid_center();
notice(2): Group "rigid_center" created containing 1000 particles
notice(2): Group "NP_Mes" created containing 1004 particles
Ramp_7_0.py:088  |  npt = hoomd.md.integrate.npt(group = groupNP_mes, kT = temp, tau = 3.0, tauP = 3.0, P = p_max);
Ramp_7_0.py:097  |  log = hoomd.analyze.log(filename = log_file,
                         quantities = ['num_particles',
                                     'ndof',
                                     'translational_ndof',
                                     'rotational_ndof',
                                     'potential_energy',
                                     'kinetic_energy',
                                     'translational_kinetic_energy',
                                     'rotational_kinetic_energy',
                                     'temperature',
                                     'pressure',
                                      'volume'],
                         period = 1e3,
                         overwrite = True);
Ramp_7_0.py:113  |                 group = hoomd.group.all(),
Ramp_7_0.py:111  |  gsd = hoomd.dump.gsd(gsd_file,
               period = 1e3,
               group = hoomd.group.all(),
               overwrite = True); 
Ramp_7_0.py:115  |  meso_gsd = hoomd.dump.gsd(meso_gsd_file,
               period = 1e3,
               group = groupNP_mes,
               overwrite = True); 
Ramp_7_0.py:126  |  hoomd.run(steps_ramp)
notice(2): -- Neighborlist exclusion statistics -- :
notice(2): Particles with 0 exclusions             : 9004
notice(2): Neighbors included by diameter          : no
notice(2): Neighbors excluded when in the same body: yes
** starting run **
Time 00:00:10 | Step 1250101 / 1295000 | TPS 496.797 | ETA 00:01:30
Time 00:00:20 | Step 1257001 / 1295000 | TPS 675.308 | ETA 00:00:56
Time 00:00:30 | Step 1262701 / 1295000 | TPS 566.504 | ETA 00:00:57
Time 00:00:41 | Step 1267801 / 1295000 | TPS 494.12 | ETA 00:00:55
Time 00:00:51 | Step 1271701 / 1295000 | TPS 381.087 | ETA 00:01:01
Time 00:01:01 | Step 1275601 / 1295000 | TPS 381.748 | ETA 00:00:50
Time 00:01:11 | Step 1281901 / 1295000 | TPS 609.061 | ETA 00:00:21
Time 00:01:22 | Step 1288201 / 1295000 | TPS 617.092 | ETA 00:00:11
Time 00:01:32 | Step 1294801 / 1295000 | TPS 640.525 | ETA 00:00:00
Time 00:01:32 | Step 1295000 / 1295000 | TPS 2502.61 | ETA 00:00:00
Average TPS: 541.976
---------
-- Neighborlist stats:
0 normal updates / 168 forced updates / 0 dangerous updates
n_neigh_min: 0 / n_neigh_max: 0 / n_neigh_avg: 0
shortest rebuild period: 100
** run complete **
