[33mWARNING: Skipping user bind, non existent bind point (file) in container: '/usr/bin/nvidia-smi'
[0m[33mWARNING: Skipping user bind, non existent bind point (file) in container: '/usr/bin/nvidia-debugdump'
[0m[33mWARNING: Skipping user bind, non existent bind point (file) in container: '/usr/bin/nvidia-persistenced'
[0m[33mWARNING: Skipping user bind, non existent bind point (file) in container: '/usr/bin/nvidia-cuda-mps-control'
[0m[33mWARNING: Skipping user bind, non existent bind point (file) in container: '/usr/bin/nvidia-cuda-mps-server'
[0mHOOMD-blue 2.3.5 CUDA (8.0) DOUBLE HPMC_MIXED TBB SSE SSE2 
Compiled: 10/08/18
Copyright 2009-2018 The Regents of the University of Michigan.
-----
You are using HOOMD-blue. Please cite the following:
* J A Anderson, C D Lorenz, and A Travesset. "General purpose molecular dynamics
  simulations fully implemented on graphics processing units", Journal of
  Computational Physics 227 (2008) 5342--5359
* J Glaser, T D Nguyen, J A Anderson, P Liu, F Spiga, J A Millan, D C Morse, and
  S C Glotzer. "Strong scaling of general-purpose molecular dynamics simulations
  on GPUs", Computer Physics Communications 192 (2015) 97--107
-----
notice(2): This system is not compute exclusive, using local rank to select GPUs
HOOMD-blue is running on the following GPU(s):
 [0]            Tesla K20m  13 SM_3.5 @ 0.706 GHz, 4743 MiB DRAM
Equilibrium_T_5_2.py:029  |  system = hoomd.init.read_snapshot(snap)
notice(2): Group "all" created containing 64256 particles
Equilibrium_T_5_2.py:033  |  rigid = hoomd.md.constrain.rigid();
notice(2): constrain.rigid(): Creating 64000 rigid bodies (adding 512000 particles)
Equilibrium_T_5_2.py:045  |  nl = hoomd.md.nlist.tree();
-----
You are using tree neighbor lists. Please cite the following:
* M P Howard, J A Anderson, A Nikoubashman, S C Glotzer, and A Z
  Panagiotopoulos. "Efficient neighbor list calculation for molecular simulation
  of colloidal systems using graphics processing units", Computer Physics
  Communications 203 (2016) 45--52
-----
Equilibrium_T_5_2.py:047  |  lj = hoomd.md.pair.lj(r_cut = 3.5, nlist = nl)
Equilibrium_T_5_2.py:048  |  lj.set_params(mode = 'shift')
Equilibrium_T_5_2.py:052  |  lj.pair_coeff.set('NP','NP', epsilon = 1.0, sigma = 5.0);
Equilibrium_T_5_2.py:053  |  lj.pair_coeff.set('M' ,'M' , epsilon = 1.0, sigma = 1.0);
Equilibrium_T_5_2.py:054  |  lj.pair_coeff.set('A' ,'A' , epsilon = 1.0, sigma = 1.0);
Equilibrium_T_5_2.py:055  |  lj.pair_coeff.set('M' ,'A' , epsilon = 1.0, sigma = 1.0);
Equilibrium_T_5_2.py:056  |  lj.pair_coeff.set('NP','M' , epsilon = 1.0, sigma = 3.0);
Equilibrium_T_5_2.py:057  |  lj.pair_coeff.set('NP','A' , epsilon = 1.0, sigma = 3.0);
Equilibrium_T_5_2.py:061  |  hoomd.md.integrate.mode_standard(dt = 0.005);
Equilibrium_T_5_2.py:065  |  nanoparticles = hoomd.group.type(name = 'Nano_Particles', type = 'NP');
notice(2): Group "Nano_Particles" created containing 256 particles
Equilibrium_T_5_2.py:066  |  mesogens = hoomd.group.rigid_center();
notice(2): Group "rigid_center" created containing 64000 particles
notice(2): Group "NP_Mes" created containing 64256 particles
Equilibrium_T_5_2.py:073  |  npt = hoomd.md.integrate.npt(group = groupNP_mes, kT = t_max, tau = 12.5, tauP = 12.5, P = p_max);
Equilibrium_T_5_2.py:081  |  log = hoomd.analyze.log(filename = log_file,
                         quantities = ['num_particles',
                                     'ndof',
                                     'translational_ndof',
                                     'rotational_ndof',
                                     'potential_energy',
                                     'kinetic_energy',
                                     'translational_kinetic_energy',
                                     'rotational_kinetic_energy',
                                     'temperature',
                                     'pressure',
                                      'volume'],
                         period = 1e3,
                         overwrite = True);
Equilibrium_T_5_2.py:097  |                 group = hoomd.group.all(),
Equilibrium_T_5_2.py:095  |  gsd = hoomd.dump.gsd(gsd_file,
               period = 1e3,
               group = hoomd.group.all(),
               overwrite = True); 
Equilibrium_T_5_2.py:099  |  meso_gsd = hoomd.dump.gsd(meso_gsd_file,
               period = 1e3,
               group = mesogens,
               overwrite = True); 
Equilibrium_T_5_2.py:108  |  hoomd.run(steps)
notice(2): -- Neighborlist exclusion statistics -- :
notice(2): Particles with 0 exclusions             : 576256
notice(2): Neighbors included by diameter          : no
notice(2): Neighbors excluded when in the same body: yes
** starting run **
Time 00:00:11 | Step 25 / 100000 | TPS 2.48058 | ETA 11:11:43
Time 00:00:21 | Step 67 / 100000 | TPS 4.15024 | ETA 06:41:18
Time 00:00:31 | Step 115 / 100000 | TPS 4.77664 | ETA 05:48:31
Time 00:00:41 | Step 165 / 100000 | TPS 4.88881 | ETA 05:40:21
Time 00:00:51 | Step 203 / 100000 | TPS 3.75813 | ETA 07:22:34
Time 00:01:01 | Step 235 / 100000 | TPS 3.18537 | ETA 08:41:59
Time 00:01:12 | Step 271 / 100000 | TPS 3.43335 | ETA 08:04:07
Time 00:01:22 | Step 309 / 100000 | TPS 3.69726 | ETA 07:29:23
Time 00:01:32 | Step 349 / 100000 | TPS 3.8702 | ETA 07:09:08
Time 00:01:42 | Step 389 / 100000 | TPS 3.9846 | ETA 06:56:39
Time 00:01:53 | Step 429 / 100000 | TPS 3.84797 | ETA 07:11:16
Time 00:02:03 | Step 471 / 100000 | TPS 4.19118 | ETA 06:35:47
Time 00:02:13 | Step 513 / 100000 | TPS 4.14564 | ETA 06:39:57
Time 00:02:23 | Step 557 / 100000 | TPS 4.24588 | ETA 06:30:21
Time 00:02:33 | Step 600 / 100000 | TPS 4.27709 | ETA 06:27:20
Time 00:02:44 | Step 643 / 100000 | TPS 4.173 | ETA 06:36:49
Time 00:02:54 | Step 687 / 100000 | TPS 4.27435 | ETA 06:27:14
Time 00:03:04 | Step 729 / 100000 | TPS 4.06569 | ETA 06:46:56
Time 00:03:14 | Step 773 / 100000 | TPS 4.30975 | ETA 06:23:43
Time 00:03:25 | Step 815 / 100000 | TPS 4.04593 | ETA 06:48:34
Time 00:03:35 | Step 859 / 100000 | TPS 4.32382 | ETA 06:22:09
Time 00:03:45 | Step 902 / 100000 | TPS 4.29871 | ETA 06:24:12
Time 00:03:55 | Step 945 / 100000 | TPS 4.23387 | ETA 06:29:55
Time 00:04:05 | Step 991 / 100000 | TPS 4.47499 | ETA 06:08:44
Time 00:04:16 | Step 1033 / 100000 | TPS 4.07995 | ETA 06:44:16
Time 00:04:26 | Step 1079 / 100000 | TPS 4.55215 | ETA 06:02:10
Time 00:04:36 | Step 1125 / 100000 | TPS 4.55139 | ETA 06:02:04
Time 00:04:46 | Step 1171 / 100000 | TPS 4.55 | ETA 06:02:00
Time 00:04:56 | Step 1217 / 100000 | TPS 4.55554 | ETA 06:01:24
Time 00:05:06 | Step 1263 / 100000 | TPS 4.56329 | ETA 06:00:37
Time 00:05:16 | Step 1309 / 100000 | TPS 4.56338 | ETA 06:00:26
Time 00:05:26 | Step 1355 / 100000 | TPS 4.56475 | ETA 06:00:10
Time 00:05:36 | Step 1401 / 100000 | TPS 4.56345 | ETA 06:00:06
Time 00:05:46 | Step 1447 / 100000 | TPS 4.56459 | ETA 05:59:50
Time 00:05:57 | Step 1493 / 100000 | TPS 4.56394 | ETA 05:59:43
Time 00:06:07 | Step 1539 / 100000 | TPS 4.57181 | ETA 05:58:56
Time 00:06:17 | Step 1585 / 100000 | TPS 4.57537 | ETA 05:58:29
Time 00:06:27 | Step 1631 / 100000 | TPS 4.57678 | ETA 05:58:13
Time 00:06:37 | Step 1677 / 100000 | TPS 4.56781 | ETA 05:58:45
Time 00:06:47 | Step 1723 / 100000 | TPS 4.57444 | ETA 05:58:03
Time 00:06:57 | Step 1769 / 100000 | TPS 4.56891 | ETA 05:58:19
Time 00:07:07 | Step 1815 / 100000 | TPS 4.56389 | ETA 05:58:33
Time 00:07:17 | Step 1861 / 100000 | TPS 4.57439 | ETA 05:57:34
Time 00:07:27 | Step 1907 / 100000 | TPS 4.56816 | ETA 05:57:53
Time 00:07:37 | Step 1953 / 100000 | TPS 4.57091 | ETA 05:57:30
Time 00:07:47 | Step 1999 / 100000 | TPS 4.5644 | ETA 05:57:50
Time 00:07:58 | Step 2043 / 100000 | TPS 4.25175 | ETA 06:23:59
Time 00:08:08 | Step 2089 / 100000 | TPS 4.56646 | ETA 05:57:21
Time 00:08:18 | Step 2135 / 100000 | TPS 4.57053 | ETA 05:56:52
Time 00:08:28 | Step 2181 / 100000 | TPS 4.57963 | ETA 05:55:59
Time 00:08:38 | Step 2227 / 100000 | TPS 4.57174 | ETA 05:56:26
Time 00:08:48 | Step 2273 / 100000 | TPS 4.56907 | ETA 05:56:28
Time 00:08:58 | Step 2319 / 100000 | TPS 4.56976 | ETA 05:56:15
Time 00:09:08 | Step 2365 / 100000 | TPS 4.5705 | ETA 05:56:01
Time 00:09:18 | Step 2411 / 100000 | TPS 4.57202 | ETA 05:55:44
Time 00:09:28 | Step 2457 / 100000 | TPS 4.59093 | ETA 05:54:06
Time 00:09:38 | Step 2503 / 100000 | TPS 4.58424 | ETA 05:54:27
Time 00:09:48 | Step 2549 / 100000 | TPS 4.58724 | ETA 05:54:03
Time 00:09:58 | Step 2595 / 100000 | TPS 4.58563 | ETA 05:54:01
Time 00:10:08 | Step 2641 / 100000 | TPS 4.59516 | ETA 05:53:07
Time 00:10:18 | Step 2687 / 100000 | TPS 4.59116 | ETA 05:53:15
Time 00:10:28 | Step 2733 / 100000 | TPS 4.59299 | ETA 05:52:57
Time 00:10:38 | Step 2780 / 100000 | TPS 4.68905 | ETA 05:45:33
Time 00:10:49 | Step 2827 / 100000 | TPS 4.51773 | ETA 05:58:29
Time 00:10:59 | Step 2874 / 100000 | TPS 4.69065 | ETA 05:45:06
Time 00:11:09 | Step 2920 / 100000 | TPS 4.59906 | ETA 05:51:48
Time 00:11:19 | Step 2967 / 100000 | TPS 4.51677 | ETA 05:58:02
Time 00:11:29 | Step 3011 / 100000 | TPS 4.28455 | ETA 06:17:16
Time 00:11:39 | Step 3058 / 100000 | TPS 4.69051 | ETA 05:44:27
Time 00:11:50 | Step 3105 / 100000 | TPS 4.52339 | ETA 05:57:00
Time 00:12:00 | Step 3151 / 100000 | TPS 4.5954 | ETA 05:51:15
Time 00:12:10 | Step 3197 / 100000 | TPS 4.59243 | ETA 05:51:18
Time 00:12:20 | Step 3244 / 100000 | TPS 4.68652 | ETA 05:44:05
Time 00:12:30 | Step 3290 / 100000 | TPS 4.59206 | ETA 05:51:00
Time 00:12:40 | Step 3336 / 100000 | TPS 4.59179 | ETA 05:50:51
Time 00:12:50 | Step 3382 / 100000 | TPS 4.59832 | ETA 05:50:11
Time 00:13:00 | Step 3429 / 100000 | TPS 4.51772 | ETA 05:56:16
Time 00:13:10 | Step 3476 / 100000 | TPS 4.69029 | ETA 05:42:59
Time 00:13:20 | Step 3522 / 100000 | TPS 4.59963 | ETA 05:49:35
Time 00:13:30 | Step 3568 / 100000 | TPS 4.597 | ETA 05:49:37
Time 00:13:40 | Step 3614 / 100000 | TPS 4.59653 | ETA 05:49:29
Time 00:13:51 | Step 3661 / 100000 | TPS 4.52229 | ETA 05:55:03
Time 00:14:01 | Step 3708 / 100000 | TPS 4.69177 | ETA 05:42:03
Time 00:14:11 | Step 3755 / 100000 | TPS 4.52394 | ETA 05:54:34
Time 00:14:21 | Step 3802 / 100000 | TPS 4.69127 | ETA 05:41:45
Time 00:14:32 | Step 3849 / 100000 | TPS 4.52563 | ETA 05:54:05
Time 00:14:42 | Step 3896 / 100000 | TPS 4.68844 | ETA 05:41:38
Time 00:14:52 | Step 3943 / 100000 | TPS 4.53557 | ETA 05:52:58
Time 00:15:02 | Step 3991 / 100000 | TPS 4.62223 | ETA 05:46:11
Time 00:15:13 | Step 4035 / 100000 | TPS 4.30829 | ETA 06:11:14
Time 00:15:23 | Step 4083 / 100000 | TPS 4.62399 | ETA 05:45:43
Time 00:15:33 | Step 4131 / 100000 | TPS 4.62151 | ETA 05:45:44
Time 00:15:44 | Step 4179 / 100000 | TPS 4.62489 | ETA 05:45:18
Time 00:15:54 | Step 4227 / 100000 | TPS 4.63518 | ETA 05:44:22
Time 00:16:04 | Step 4275 / 100000 | TPS 4.63088 | ETA 05:44:31
Time 00:16:15 | Step 4323 / 100000 | TPS 4.62906 | ETA 05:44:28
Time 00:16:25 | Step 4371 / 100000 | TPS 4.62577 | ETA 05:44:33
Time 00:16:36 | Step 4419 / 100000 | TPS 4.62499 | ETA 05:44:26
Time 00:16:46 | Step 4467 / 100000 | TPS 4.62093 | ETA 05:44:33
Time 00:16:56 | Step 4515 / 100000 | TPS 4.62636 | ETA 05:43:59
Time 00:17:07 | Step 4563 / 100000 | TPS 4.63889 | ETA 05:42:53
Time 00:17:17 | Step 4611 / 100000 | TPS 4.62899 | ETA 05:43:26
Time 00:17:27 | Step 4659 / 100000 | TPS 4.6199 | ETA 05:43:57
Time 00:17:38 | Step 4707 / 100000 | TPS 4.62486 | ETA 05:43:24
Time 00:17:48 | Step 4755 / 100000 | TPS 4.62154 | ETA 05:43:28
Time 00:17:59 | Step 4803 / 100000 | TPS 4.61537 | ETA 05:43:46
Time 00:18:09 | Step 4851 / 100000 | TPS 4.63843 | ETA 05:41:53
Time 00:18:19 | Step 4899 / 100000 | TPS 4.62721 | ETA 05:42:32
Time 00:18:30 | Step 4947 / 100000 | TPS 4.62911 | ETA 05:42:13
Time 00:18:40 | Step 4995 / 100000 | TPS 4.6282 | ETA 05:42:07
Time 00:18:50 | Step 5039 / 100000 | TPS 4.31008 | ETA 06:07:12
Time 00:19:01 | Step 5087 / 100000 | TPS 4.6288 | ETA 05:41:44
Time 00:19:11 | Step 5135 / 100000 | TPS 4.63108 | ETA 05:41:24
Time 00:19:21 | Step 5183 / 100000 | TPS 4.64046 | ETA 05:40:32
Time 00:19:32 | Step 5231 / 100000 | TPS 4.63956 | ETA 05:40:26
Time 00:19:42 | Step 5279 / 100000 | TPS 4.63447 | ETA 05:40:38
Time 00:19:52 | Step 5327 / 100000 | TPS 4.64193 | ETA 05:39:55
Time 00:20:03 | Step 5375 / 100000 | TPS 4.64539 | ETA 05:39:29
Time 00:20:13 | Step 5423 / 100000 | TPS 4.65059 | ETA 05:38:56
Time 00:20:23 | Step 5471 / 100000 | TPS 4.65202 | ETA 05:38:40
Time 00:20:34 | Step 5519 / 100000 | TPS 4.64805 | ETA 05:38:47
Time 00:20:44 | Step 5567 / 100000 | TPS 4.65326 | ETA 05:38:13
Time 00:20:54 | Step 5615 / 100000 | TPS 4.6544 | ETA 05:37:58
Time 00:21:05 | Step 5663 / 100000 | TPS 4.65505 | ETA 05:37:45
Time 00:21:15 | Step 5711 / 100000 | TPS 4.6509 | ETA 05:37:53
Time 00:21:25 | Step 5759 / 100000 | TPS 4.66684 | ETA 05:36:33
Time 00:21:36 | Step 5807 / 100000 | TPS 4.66092 | ETA 05:36:49
Time 00:21:46 | Step 5855 / 100000 | TPS 4.65464 | ETA 05:37:06
Time 00:21:56 | Step 5903 / 100000 | TPS 4.65633 | ETA 05:36:48
Time 00:22:06 | Step 5951 / 100000 | TPS 4.65173 | ETA 05:36:58
Time 00:22:17 | Step 5999 / 100000 | TPS 4.64996 | ETA 05:36:55
Time 00:22:27 | Step 6043 / 100000 | TPS 4.34602 | ETA 06:00:19
Time 00:22:37 | Step 6091 / 100000 | TPS 4.66126 | ETA 05:35:46
Time 00:22:48 | Step 6139 / 100000 | TPS 4.65236 | ETA 05:36:14
Time 00:22:58 | Step 6187 / 100000 | TPS 4.65228 | ETA 05:36:04
Time 00:23:08 | Step 6235 / 100000 | TPS 4.65165 | ETA 05:35:57
Time 00:23:18 | Step 6283 / 100000 | TPS 4.65395 | ETA 05:35:37
Time 00:23:29 | Step 6331 / 100000 | TPS 4.6461 | ETA 05:36:00
Time 00:23:39 | Step 6379 / 100000 | TPS 4.65398 | ETA 05:35:16
Time 00:23:49 | Step 6427 / 100000 | TPS 4.65669 | ETA 05:34:54
Time 00:24:00 | Step 6475 / 100000 | TPS 4.65639 | ETA 05:34:45
Time 00:24:10 | Step 6523 / 100000 | TPS 4.65766 | ETA 05:34:29
Time 00:24:20 | Step 6571 / 100000 | TPS 4.66347 | ETA 05:33:54
Time 00:24:31 | Step 6619 / 100000 | TPS 4.66269 | ETA 05:33:47
Time 00:24:41 | Step 6667 / 100000 | TPS 4.67257 | ETA 05:32:54
Time 00:24:51 | Step 6715 / 100000 | TPS 4.67153 | ETA 05:32:48
Time 00:25:01 | Step 6763 / 100000 | TPS 4.67539 | ETA 05:32:22
Time 00:25:12 | Step 6811 / 100000 | TPS 4.67119 | ETA 05:32:29
Time 00:25:22 | Step 6859 / 100000 | TPS 4.67063 | ETA 05:32:21
Time 00:25:32 | Step 6907 / 100000 | TPS 4.66286 | ETA 05:32:44
Time 00:25:43 | Step 6955 / 100000 | TPS 4.68714 | ETA 05:30:51
Time 00:25:53 | Step 7001 / 100000 | TPS 4.36992 | ETA 05:54:41
Time 00:26:03 | Step 7049 / 100000 | TPS 4.67629 | ETA 05:31:17
Time 00:26:14 | Step 7097 / 100000 | TPS 4.67654 | ETA 05:31:05
Time 00:26:24 | Step 7145 / 100000 | TPS 4.67822 | ETA 05:30:48
Time 00:26:34 | Step 7193 / 100000 | TPS 4.67057 | ETA 05:31:10
Time 00:26:44 | Step 7241 / 100000 | TPS 4.67999 | ETA 05:30:20
Time 00:26:55 | Step 7289 / 100000 | TPS 4.67785 | ETA 05:30:19
Time 00:27:05 | Step 7337 / 100000 | TPS 4.66778 | ETA 05:30:51
Time 00:27:15 | Step 7385 / 100000 | TPS 4.67558 | ETA 05:30:08
Time 00:27:25 | Step 7433 / 100000 | TPS 4.67004 | ETA 05:30:21
Time 00:27:36 | Step 7481 / 100000 | TPS 4.66551 | ETA 05:30:30
Time 00:27:46 | Step 7529 / 100000 | TPS 4.67004 | ETA 05:30:00
Time 00:27:56 | Step 7577 / 100000 | TPS 4.67813 | ETA 05:29:16
Time 00:28:07 | Step 7625 / 100000 | TPS 4.66845 | ETA 05:29:47
Time 00:28:17 | Step 7673 / 100000 | TPS 4.66988 | ETA 05:29:30
Time 00:28:27 | Step 7721 / 100000 | TPS 4.66734 | ETA 05:29:31
Time 00:28:37 | Step 7769 / 100000 | TPS 4.67068 | ETA 05:29:06
Time 00:28:48 | Step 7817 / 100000 | TPS 4.66788 | ETA 05:29:08
Time 00:28:58 | Step 7865 / 100000 | TPS 4.67964 | ETA 05:28:08
Time 00:29:08 | Step 7913 / 100000 | TPS 4.67649 | ETA 05:28:11
Time 00:29:18 | Step 7961 / 100000 | TPS 4.67872 | ETA 05:27:51
Time 00:29:29 | Step 8005 / 100000 | TPS 4.35538 | ETA 05:52:02
Time 00:29:39 | Step 8053 / 100000 | TPS 4.68167 | ETA 05:27:19
Time 00:29:49 | Step 8101 / 100000 | TPS 4.66763 | ETA 05:28:08
Time 00:29:59 | Step 8149 / 100000 | TPS 4.68937 | ETA 05:26:27
Time 00:30:10 | Step 8197 / 100000 | TPS 4.69274 | ETA 05:26:02
Time 00:30:20 | Step 8245 / 100000 | TPS 4.68717 | ETA 05:26:15
Time 00:30:30 | Step 8293 / 100000 | TPS 4.68856 | ETA 05:25:59
Time 00:30:40 | Step 8341 / 100000 | TPS 4.68359 | ETA 05:26:10
Time 00:30:51 | Step 8389 / 100000 | TPS 4.68375 | ETA 05:25:59
Time 00:31:01 | Step 8437 / 100000 | TPS 4.68463 | ETA 05:25:45
Time 00:31:11 | Step 8485 / 100000 | TPS 4.68305 | ETA 05:25:41
Time 00:31:21 | Step 8533 / 100000 | TPS 4.69172 | ETA 05:24:55
Time 00:31:31 | Step 8581 / 100000 | TPS 4.69228 | ETA 05:24:42
Time 00:31:42 | Step 8629 / 100000 | TPS 4.6902 | ETA 05:24:41
Time 00:31:52 | Step 8677 / 100000 | TPS 4.68489 | ETA 05:24:53
Time 00:32:02 | Step 8725 / 100000 | TPS 4.68558 | ETA 05:24:39
Time 00:32:12 | Step 8773 / 100000 | TPS 4.69354 | ETA 05:23:56
Time 00:32:23 | Step 8821 / 100000 | TPS 4.69173 | ETA 05:23:53
Time 00:32:33 | Step 8869 / 100000 | TPS 4.68564 | ETA 05:24:08
Time 00:32:43 | Step 8917 / 100000 | TPS 4.68524 | ETA 05:24:00
Time 00:32:53 | Step 8965 / 100000 | TPS 4.68238 | ETA 05:24:02
Time 00:33:04 | Step 9009 / 100000 | TPS 4.34794 | ETA 05:48:47
Time 00:33:14 | Step 9057 / 100000 | TPS 4.69308 | ETA 05:22:58
Time 00:33:24 | Step 9105 / 100000 | TPS 4.67962 | ETA 05:23:43
Time 00:33:34 | Step 9153 / 100000 | TPS 4.67306 | ETA 05:24:00
Time 00:33:45 | Step 9201 / 100000 | TPS 4.67189 | ETA 05:23:55
Time 00:33:55 | Step 9249 / 100000 | TPS 4.67295 | ETA 05:23:40
Time 00:34:05 | Step 9297 / 100000 | TPS 4.68133 | ETA 05:22:55
Time 00:34:15 | Step 9345 / 100000 | TPS 4.68471 | ETA 05:22:31
Time 00:34:26 | Step 9393 / 100000 | TPS 4.68659 | ETA 05:22:13
Time 00:34:36 | Step 9441 / 100000 | TPS 4.68386 | ETA 05:22:14
Time 00:34:46 | Step 9489 / 100000 | TPS 4.68012 | ETA 05:22:19
Time 00:34:56 | Step 9537 / 100000 | TPS 4.68333 | ETA 05:21:55
Time 00:35:07 | Step 9585 / 100000 | TPS 4.68464 | ETA 05:21:40
Time 00:35:17 | Step 9633 / 100000 | TPS 4.68554 | ETA 05:21:26
Time 00:35:27 | Step 9681 / 100000 | TPS 4.69072 | ETA 05:20:54
Time 00:35:37 | Step 9729 / 100000 | TPS 4.68507 | ETA 05:21:07
Time 00:35:48 | Step 9777 / 100000 | TPS 4.68498 | ETA 05:20:57
Time 00:35:58 | Step 9825 / 100000 | TPS 4.68865 | ETA 05:20:32
Time 00:36:08 | Step 9873 / 100000 | TPS 4.68786 | ETA 05:20:25
Time 00:36:18 | Step 9921 / 100000 | TPS 4.686 | ETA 05:20:23
Time 00:36:28 | Step 9969 / 100000 | TPS 4.6933 | ETA 05:19:42
Time 00:36:39 | Step 10013 / 100000 | TPS 4.36449 | ETA 05:43:37
Time 00:36:49 | Step 10061 / 100000 | TPS 4.69466 | ETA 05:19:17
Time 00:36:59 | Step 10109 / 100000 | TPS 4.68767 | ETA 05:19:36
Time 00:37:09 | Step 10157 / 100000 | TPS 4.68101 | ETA 05:19:53
Time 00:37:20 | Step 10205 / 100000 | TPS 4.68378 | ETA 05:19:31
Time 00:37:30 | Step 10253 / 100000 | TPS 4.6961 | ETA 05:18:30
Time 00:37:40 | Step 10301 / 100000 | TPS 4.68606 | ETA 05:19:01
Time 00:37:50 | Step 10349 / 100000 | TPS 4.68669 | ETA 05:18:48
Time 00:38:01 | Step 10397 / 100000 | TPS 4.68214 | ETA 05:18:57
Time 00:38:11 | Step 10445 / 100000 | TPS 4.68346 | ETA 05:18:41
Time 00:38:21 | Step 10493 / 100000 | TPS 4.67864 | ETA 05:18:50
Time 00:38:31 | Step 10541 / 100000 | TPS 4.68383 | ETA 05:18:19
Time 00:38:42 | Step 10589 / 100000 | TPS 4.68454 | ETA 05:18:06
Time 00:38:52 | Step 10637 / 100000 | TPS 4.68821 | ETA 05:17:41
Time 00:39:02 | Step 10685 / 100000 | TPS 4.68397 | ETA 05:17:48
Time 00:39:12 | Step 10733 / 100000 | TPS 4.68636 | ETA 05:17:28
Time 00:39:22 | Step 10781 / 100000 | TPS 4.67792 | ETA 05:17:52
Time 00:39:33 | Step 10829 / 100000 | TPS 4.69312 | ETA 05:16:40
Time 00:39:43 | Step 10877 / 100000 | TPS 4.70478 | ETA 05:15:43
Time 00:39:53 | Step 10925 / 100000 | TPS 4.69667 | ETA 05:16:05
Time 00:40:03 | Step 10973 / 100000 | TPS 4.69368 | ETA 05:16:07
Time 00:40:13 | Step 11017 / 100000 | TPS 4.35946 | ETA 05:40:11
Time 00:40:24 | Step 11065 / 100000 | TPS 4.69139 | ETA 05:15:57
Time 00:40:34 | Step 11113 / 100000 | TPS 4.68624 | ETA 05:16:07
Time 00:40:44 | Step 11161 / 100000 | TPS 4.70522 | ETA 05:14:40
Time 00:40:54 | Step 11209 / 100000 | TPS 4.69678 | ETA 05:15:04
Time 00:41:05 | Step 11257 / 100000 | TPS 4.69296 | ETA 05:15:09
Time 00:41:15 | Step 11305 / 100000 | TPS 4.69437 | ETA 05:14:53
Time 00:41:25 | Step 11353 / 100000 | TPS 4.69384 | ETA 05:14:45
Time 00:41:35 | Step 11401 / 100000 | TPS 4.68097 | ETA 05:15:27
Time 00:41:45 | Step 11449 / 100000 | TPS 4.70372 | ETA 05:13:45
Time 00:41:56 | Step 11497 / 100000 | TPS 4.69468 | ETA 05:14:11
Time 00:42:06 | Step 11545 / 100000 | TPS 4.68661 | ETA 05:14:33
Time 00:42:16 | Step 11593 / 100000 | TPS 4.68294 | ETA 05:14:38
Time 00:42:26 | Step 11641 / 100000 | TPS 4.68183 | ETA 05:14:32
Time 00:42:37 | Step 11689 / 100000 | TPS 4.68353 | ETA 05:14:15
Time 00:42:47 | Step 11737 / 100000 | TPS 4.68883 | ETA 05:13:44
Time 00:42:57 | Step 11785 / 100000 | TPS 4.69327 | ETA 05:13:16
Time 00:43:07 | Step 11833 / 100000 | TPS 4.68635 | ETA 05:13:33
Time 00:43:18 | Step 11881 / 100000 | TPS 4.68905 | ETA 05:13:12
Time 00:43:28 | Step 11929 / 100000 | TPS 4.68831 | ETA 05:13:05
Time 00:43:38 | Step 11977 / 100000 | TPS 4.68221 | ETA 05:13:19
Time 00:43:48 | Step 12021 / 100000 | TPS 4.3554 | ETA 05:36:39
Time 00:43:58 | Step 12069 / 100000 | TPS 4.69078 | ETA 05:12:25
Time 00:44:09 | Step 12117 / 100000 | TPS 4.69235 | ETA 05:12:09
Time 00:44:19 | Step 12165 / 100000 | TPS 4.68804 | ETA 05:12:15
Time 00:44:29 | Step 12213 / 100000 | TPS 4.68762 | ETA 05:12:07
Time 00:44:39 | Step 12261 / 100000 | TPS 4.69007 | ETA 05:11:47
Time 00:44:50 | Step 12309 / 100000 | TPS 4.68094 | ETA 05:12:13
Time 00:45:00 | Step 12357 / 100000 | TPS 4.70391 | ETA 05:10:31
Time 00:45:10 | Step 12405 / 100000 | TPS 4.69208 | ETA 05:11:08
Time 00:45:20 | Step 12453 / 100000 | TPS 4.6871 | ETA 05:11:18
Time 00:45:31 | Step 12501 / 100000 | TPS 4.68883 | ETA 05:11:01
Time 00:45:41 | Step 12549 / 100000 | TPS 4.68594 | ETA 05:11:02
Time 00:45:51 | Step 12597 / 100000 | TPS 4.685 | ETA 05:10:55
Time 00:46:01 | Step 12645 / 100000 | TPS 4.68756 | ETA 05:10:35
Time 00:46:12 | Step 12693 / 100000 | TPS 4.69321 | ETA 05:10:02
Time 00:46:22 | Step 12741 / 100000 | TPS 4.69245 | ETA 05:09:55
Time 00:46:32 | Step 12789 / 100000 | TPS 4.69224 | ETA 05:09:46
Time 00:46:42 | Step 12837 / 100000 | TPS 4.68988 | ETA 05:09:45
Time 00:46:52 | Step 12885 / 100000 | TPS 4.67918 | ETA 05:10:17
Time 00:47:03 | Step 12933 / 100000 | TPS 4.69004 | ETA 05:09:24
Time 00:47:13 | Step 12981 / 100000 | TPS 4.69148 | ETA 05:09:08
Time 00:47:23 | Step 13025 / 100000 | TPS 4.35742 | ETA 05:32:40
Time 00:47:33 | Step 13073 / 100000 | TPS 4.6808 | ETA 05:09:30
Time 00:47:44 | Step 13121 / 100000 | TPS 4.68583 | ETA 05:09:00
Time 00:47:54 | Step 13169 / 100000 | TPS 4.67245 | ETA 05:09:43
Time 00:48:04 | Step 13217 / 100000 | TPS 4.67688 | ETA 05:09:15
Time 00:48:14 | Step 13265 / 100000 | TPS 4.68837 | ETA 05:08:20
Time 00:48:25 | Step 13313 / 100000 | TPS 4.68843 | ETA 05:08:09
Time 00:48:35 | Step 13361 / 100000 | TPS 4.68107 | ETA 05:08:28
Time 00:48:45 | Step 13409 / 100000 | TPS 4.68064 | ETA 05:08:19
Time 00:48:55 | Step 13457 / 100000 | TPS 4.68439 | ETA 05:07:54
Time 00:49:06 | Step 13505 / 100000 | TPS 4.67279 | ETA 05:08:30
Time 00:49:16 | Step 13553 / 100000 | TPS 4.68731 | ETA 05:07:22
Time 00:49:26 | Step 13601 / 100000 | TPS 4.67975 | ETA 05:07:42
Time 00:49:36 | Step 13649 / 100000 | TPS 4.68241 | ETA 05:07:21
Time 00:49:47 | Step 13697 / 100000 | TPS 4.67833 | ETA 05:07:27
Time 00:49:57 | Step 13745 / 100000 | TPS 4.6787 | ETA 05:07:15
Time 00:50:07 | Step 13793 / 100000 | TPS 4.67942 | ETA 05:07:02
Time 00:50:17 | Step 13841 / 100000 | TPS 4.68347 | ETA 05:06:36
Time 00:50:28 | Step 13889 / 100000 | TPS 4.68505 | ETA 05:06:19
Time 00:50:38 | Step 13937 / 100000 | TPS 4.68056 | ETA 05:06:27
Time 00:50:48 | Step 13985 / 100000 | TPS 4.67656 | ETA 05:06:32
Time 00:50:58 | Step 14029 / 100000 | TPS 4.35403 | ETA 05:29:05
Time 00:51:09 | Step 14077 / 100000 | TPS 4.67501 | ETA 05:06:19
Time 00:51:19 | Step 14125 / 100000 | TPS 4.67954 | ETA 05:05:51
Time 00:51:29 | Step 14173 / 100000 | TPS 4.67662 | ETA 05:05:52
Time 00:51:39 | Step 14221 / 100000 | TPS 4.67346 | ETA 05:05:54
Time 00:51:50 | Step 14269 / 100000 | TPS 4.67141 | ETA 05:05:52
Time 00:52:00 | Step 14317 / 100000 | TPS 4.66873 | ETA 05:05:52
Time 00:52:10 | Step 14365 / 100000 | TPS 4.66825 | ETA 05:05:44
Time 00:52:20 | Step 14413 / 100000 | TPS 4.6672 | ETA 05:05:37
Time 00:52:31 | Step 14461 / 100000 | TPS 4.67902 | ETA 05:04:41
Time 00:52:41 | Step 14509 / 100000 | TPS 4.67362 | ETA 05:04:52
Time 00:52:51 | Step 14557 / 100000 | TPS 4.6741 | ETA 05:04:40
Time 00:53:01 | Step 14605 / 100000 | TPS 4.67757 | ETA 05:04:16
Time 00:53:12 | Step 14653 / 100000 | TPS 4.66595 | ETA 05:04:51
Time 00:53:22 | Step 14701 / 100000 | TPS 4.66127 | ETA 05:04:59
Time 00:53:32 | Step 14749 / 100000 | TPS 4.68001 | ETA 05:03:35
Time 00:53:43 | Step 14797 / 100000 | TPS 4.67913 | ETA 05:03:29
Time 00:53:53 | Step 14845 / 100000 | TPS 4.67368 | ETA 05:03:40
Time 00:54:03 | Step 14893 / 100000 | TPS 4.67275 | ETA 05:03:33
Time 00:54:13 | Step 14941 / 100000 | TPS 4.66469 | ETA 05:03:54
Time 00:54:24 | Step 14989 / 100000 | TPS 4.66535 | ETA 05:03:41
Time 00:54:34 | Step 15033 / 100000 | TPS 4.34923 | ETA 05:25:36
Time 00:54:44 | Step 15081 / 100000 | TPS 4.67287 | ETA 05:02:52
Time 00:54:54 | Step 15129 / 100000 | TPS 4.67282 | ETA 05:02:42
Time 00:55:05 | Step 15177 / 100000 | TPS 4.66838 | ETA 05:02:49
Time 00:55:15 | Step 15225 / 100000 | TPS 4.67181 | ETA 05:02:26
Time 00:55:25 | Step 15273 / 100000 | TPS 4.66834 | ETA 05:02:29
Time 00:55:35 | Step 15321 / 100000 | TPS 4.66868 | ETA 05:02:17
Time 00:55:46 | Step 15369 / 100000 | TPS 4.67826 | ETA 05:01:30
Time 00:55:56 | Step 15417 / 100000 | TPS 4.67323 | ETA 05:01:39
Time 00:56:06 | Step 15465 / 100000 | TPS 4.66857 | ETA 05:01:47
Time 00:56:17 | Step 15513 / 100000 | TPS 4.66614 | ETA 05:01:46
Time 00:56:27 | Step 15561 / 100000 | TPS 4.66757 | ETA 05:01:30
Time 00:56:37 | Step 15609 / 100000 | TPS 4.66265 | ETA 05:01:39
Time 00:56:47 | Step 15657 / 100000 | TPS 4.67556 | ETA 05:00:39
Time 00:56:58 | Step 15705 / 100000 | TPS 4.67358 | ETA 05:00:36
Time 00:57:08 | Step 15753 / 100000 | TPS 4.66523 | ETA 05:00:58
Time 00:57:18 | Step 15801 / 100000 | TPS 4.66495 | ETA 05:00:49
Time 00:57:29 | Step 15849 / 100000 | TPS 4.66169 | ETA 05:00:51
Time 00:57:39 | Step 15897 / 100000 | TPS 4.6684 | ETA 05:00:15
Time 00:57:49 | Step 15945 / 100000 | TPS 4.67449 | ETA 04:59:41
Time 00:57:59 | Step 15993 / 100000 | TPS 4.6715 | ETA 04:59:42
Time 00:58:10 | Step 16037 / 100000 | TPS 4.34514 | ETA 05:22:03
Time 00:58:20 | Step 16085 / 100000 | TPS 4.65641 | ETA 05:00:21
Time 00:58:30 | Step 16133 / 100000 | TPS 4.65948 | ETA 04:59:59
Time 00:58:40 | Step 16181 / 100000 | TPS 4.65668 | ETA 04:59:59
Time 00:58:51 | Step 16229 / 100000 | TPS 4.66322 | ETA 04:59:24
Time 00:59:01 | Step 16277 / 100000 | TPS 4.65957 | ETA 04:59:27
Time 00:59:11 | Step 16325 / 100000 | TPS 4.65878 | ETA 04:59:20
Time 00:59:22 | Step 16373 / 100000 | TPS 4.66383 | ETA 04:58:50
Time 00:59:32 | Step 16421 / 100000 | TPS 4.6553 | ETA 04:59:13
Time 00:59:42 | Step 16469 / 100000 | TPS 4.65812 | ETA 04:58:52
Time 00:59:53 | Step 16517 / 100000 | TPS 4.6552 | ETA 04:58:53
Time 01:00:03 | Step 16565 / 100000 | TPS 4.67025 | ETA 04:57:45
Time 01:00:13 | Step 16613 / 100000 | TPS 4.66432 | ETA 04:57:57
Time 01:00:23 | Step 16661 / 100000 | TPS 4.66418 | ETA 04:57:47
Time 01:00:34 | Step 16709 / 100000 | TPS 4.66222 | ETA 04:57:45
Time 01:00:44 | Step 16757 / 100000 | TPS 4.66025 | ETA 04:57:42
Time 01:00:54 | Step 16805 / 100000 | TPS 4.6522 | ETA 04:58:02
Time 01:01:05 | Step 16853 / 100000 | TPS 4.66698 | ETA 04:56:55
Time 01:01:15 | Step 16901 / 100000 | TPS 4.66164 | ETA 04:57:06
Time 01:01:25 | Step 16949 / 100000 | TPS 4.66284 | ETA 04:56:51
Time 01:01:36 | Step 16997 / 100000 | TPS 4.66061 | ETA 04:56:49
Time 01:01:46 | Step 17041 / 100000 | TPS 4.32452 | ETA 05:19:43
Time 01:01:56 | Step 17089 / 100000 | TPS 4.65363 | ETA 04:56:56
Time 01:02:06 | Step 17137 / 100000 | TPS 4.6565 | ETA 04:56:35
Time 01:02:17 | Step 17185 / 100000 | TPS 4.66 | ETA 04:56:11
Time 01:02:27 | Step 17233 / 100000 | TPS 4.66249 | ETA 04:55:51
Time 01:02:37 | Step 17281 / 100000 | TPS 4.6576 | ETA 04:56:00
Time 01:02:48 | Step 17329 / 100000 | TPS 4.64807 | ETA 04:56:26
Time 01:02:58 | Step 17377 / 100000 | TPS 4.6521 | ETA 04:56:00
Time 01:03:08 | Step 17425 / 100000 | TPS 4.65338 | ETA 04:55:45
Time 01:03:18 | Step 17473 / 100000 | TPS 4.66025 | ETA 04:55:08
Time 01:03:29 | Step 17521 / 100000 | TPS 4.65055 | ETA 04:55:35
Time 01:03:39 | Step 17569 / 100000 | TPS 4.6552 | ETA 04:55:07
Time 01:03:49 | Step 17617 / 100000 | TPS 4.65437 | ETA 04:55:00
Time 01:04:00 | Step 17665 / 100000 | TPS 4.64751 | ETA 04:55:15
Time 01:04:10 | Step 17713 / 100000 | TPS 4.64719 | ETA 04:55:06
Time 01:04:20 | Step 17761 / 100000 | TPS 4.65301 | ETA 04:54:34
Time 01:04:31 | Step 17809 / 100000 | TPS 4.65045 | ETA 04:54:33
Time 01:04:41 | Step 17857 / 100000 | TPS 4.65451 | ETA 04:54:08
Time 01:04:51 | Step 17905 / 100000 | TPS 4.6535 | ETA 04:54:01
Time 01:05:02 | Step 17953 / 100000 | TPS 4.64626 | ETA 04:54:18
Time 01:05:13 | Step 18001 / 100000 | TPS 4.33908 | ETA 05:14:57
Time 01:05:23 | Step 18049 / 100000 | TPS 4.64953 | ETA 04:53:45
Time 01:05:33 | Step 18097 / 100000 | TPS 4.6553 | ETA 04:53:13
Time 01:05:44 | Step 18145 / 100000 | TPS 4.64537 | ETA 04:53:40
Time 01:05:54 | Step 18193 / 100000 | TPS 4.64707 | ETA 04:53:23
Time 01:06:04 | Step 18241 / 100000 | TPS 4.64952 | ETA 04:53:04
Time 01:06:15 | Step 18289 / 100000 | TPS 4.64796 | ETA 04:52:59
Time 01:06:25 | Step 18337 / 100000 | TPS 4.65253 | ETA 04:52:32
Time 01:06:35 | Step 18385 / 100000 | TPS 4.65549 | ETA 04:52:10
Time 01:06:46 | Step 18433 / 100000 | TPS 4.64917 | ETA 04:52:24
Time 01:06:56 | Step 18481 / 100000 | TPS 4.64637 | ETA 04:52:24
Time 01:07:06 | Step 18529 / 100000 | TPS 4.64369 | ETA 04:52:24
Time 01:07:17 | Step 18577 / 100000 | TPS 4.63568 | ETA 04:52:44
Time 01:07:27 | Step 18625 / 100000 | TPS 4.63799 | ETA 04:52:25
Time 01:07:37 | Step 18673 / 100000 | TPS 4.6524 | ETA 04:51:20
Time 01:07:48 | Step 18721 / 100000 | TPS 4.64501 | ETA 04:51:38
Time 01:07:58 | Step 18769 / 100000 | TPS 4.63939 | ETA 04:51:48
Time 01:08:08 | Step 18817 / 100000 | TPS 4.6332 | ETA 04:52:02
Time 01:08:19 | Step 18865 / 100000 | TPS 4.6317 | ETA 04:51:57
Time 01:08:29 | Step 18913 / 100000 | TPS 4.63124 | ETA 04:51:48
Time 01:08:39 | Step 18961 / 100000 | TPS 4.64368 | ETA 04:50:51
Time 01:08:50 | Step 19005 / 100000 | TPS 4.31847 | ETA 05:12:35
Time 01:09:00 | Step 19053 / 100000 | TPS 4.63784 | ETA 04:50:53
Time 01:09:10 | Step 19101 / 100000 | TPS 4.63241 | ETA 04:51:03
Time 01:09:21 | Step 19149 / 100000 | TPS 4.61938 | ETA 04:51:42
Time 01:09:31 | Step 19197 / 100000 | TPS 4.6263 | ETA 04:51:06
Time 01:09:41 | Step 19245 / 100000 | TPS 4.63231 | ETA 04:50:32
Time 01:09:52 | Step 19293 / 100000 | TPS 4.64242 | ETA 04:49:44
Time 01:10:02 | Step 19341 / 100000 | TPS 4.6289 | ETA 04:50:25
Time 01:10:13 | Step 19389 / 100000 | TPS 4.63524 | ETA 04:49:50
Time 01:10:23 | Step 19437 / 100000 | TPS 4.63067 | ETA 04:49:57
Time 01:10:33 | Step 19485 / 100000 | TPS 4.62846 | ETA 04:49:55
Time 01:10:44 | Step 19533 / 100000 | TPS 4.62805 | ETA 04:49:46
Time 01:10:54 | Step 19581 / 100000 | TPS 4.63899 | ETA 04:48:55
Time 01:11:04 | Step 19629 / 100000 | TPS 4.63814 | ETA 04:48:48
Time 01:11:15 | Step 19677 / 100000 | TPS 4.63453 | ETA 04:48:51
Time 01:11:25 | Step 19725 / 100000 | TPS 4.63549 | ETA 04:48:37
Time 01:11:35 | Step 19773 / 100000 | TPS 4.62801 | ETA 04:48:55
Time 01:11:46 | Step 19821 / 100000 | TPS 4.62221 | ETA 04:49:06
Time 01:11:56 | Step 19869 / 100000 | TPS 4.63835 | ETA 04:47:55
Time 01:12:07 | Step 19917 / 100000 | TPS 4.62928 | ETA 04:48:19
Time 01:12:17 | Step 19965 / 100000 | TPS 4.62473 | ETA 04:48:25
Time 01:12:27 | Step 20009 / 100000 | TPS 4.30328 | ETA 05:09:48
Time 01:12:38 | Step 20057 / 100000 | TPS 4.61574 | ETA 04:48:39
Time 01:12:48 | Step 20105 / 100000 | TPS 4.62125 | ETA 04:48:08
Time 01:12:58 | Step 20153 / 100000 | TPS 4.62738 | ETA 04:47:35
Time 01:13:09 | Step 20201 / 100000 | TPS 4.62489 | ETA 04:47:34
Time 01:13:19 | Step 20249 / 100000 | TPS 4.61976 | ETA 04:47:43
Time 01:13:29 | Step 20297 / 100000 | TPS 4.61851 | ETA 04:47:37
Time 01:13:40 | Step 20345 / 100000 | TPS 4.61944 | ETA 04:47:23
Time 01:13:50 | Step 20387 / 100000 | TPS 4.0825 | ETA 05:25:01
Time 01:14:01 | Step 20429 / 100000 | TPS 4.04048 | ETA 05:28:13
Time 01:14:11 | Step 20477 / 100000 | TPS 4.62492 | ETA 04:46:34
Time 01:14:21 | Step 20525 / 100000 | TPS 4.61828 | ETA 04:46:48
Time 01:14:32 | Step 20573 / 100000 | TPS 4.61633 | ETA 04:46:45
Time 01:14:42 | Step 20621 / 100000 | TPS 4.61438 | ETA 04:46:42
Time 01:14:52 | Step 20668 / 100000 | TPS 4.69677 | ETA 04:41:30
Time 01:15:02 | Step 20715 / 100000 | TPS 4.52954 | ETA 04:51:43
Time 01:15:13 | Step 20763 / 100000 | TPS 4.62156 | ETA 04:45:45
Time 01:15:23 | Step 20811 / 100000 | TPS 4.62172 | ETA 04:45:34
Time 01:15:34 | Step 20859 / 100000 | TPS 4.6226 | ETA 04:45:20
Time 01:15:44 | Step 20907 / 100000 | TPS 4.62275 | ETA 04:45:09
Time 01:15:54 | Step 20955 / 100000 | TPS 4.61725 | ETA 04:45:19
Time 01:16:05 | Step 21001 / 100000 | TPS 4.31214 | ETA 05:05:20
Time 01:16:15 | Step 21049 / 100000 | TPS 4.63292 | ETA 04:44:01
Time 01:16:26 | Step 21097 / 100000 | TPS 4.62599 | ETA 04:44:16
Time 01:16:36 | Step 21145 / 100000 | TPS 4.62699 | ETA 04:44:02
Time 01:16:47 | Step 21193 / 100000 | TPS 4.62504 | ETA 04:43:59
Time 01:16:57 | Step 21241 / 100000 | TPS 4.62125 | ETA 04:44:02
Time 01:17:07 | Step 21289 / 100000 | TPS 4.62072 | ETA 04:43:54
Time 01:17:18 | Step 21337 / 100000 | TPS 4.62595 | ETA 04:43:24
Time 01:17:28 | Step 21385 / 100000 | TPS 4.62989 | ETA 04:42:59
Time 01:17:38 | Step 21433 / 100000 | TPS 4.62736 | ETA 04:42:58
Time 01:17:49 | Step 21481 / 100000 | TPS 4.62211 | ETA 04:43:07
Time 01:17:59 | Step 21529 / 100000 | TPS 4.61925 | ETA 04:43:07
Time 01:18:09 | Step 21576 / 100000 | TPS 4.69978 | ETA 04:38:06
Time 01:18:20 | Step 21623 / 100000 | TPS 4.52456 | ETA 04:48:42
Time 01:18:30 | Step 21671 / 100000 | TPS 4.62539 | ETA 04:42:14
Time 01:18:40 | Step 21718 / 100000 | TPS 4.69827 | ETA 04:37:41
Time 01:18:50 | Step 21765 / 100000 | TPS 4.52998 | ETA 04:47:50
Time 01:19:01 | Step 21813 / 100000 | TPS 4.61708 | ETA 04:42:14
Time 01:19:11 | Step 21860 / 100000 | TPS 4.69943 | ETA 04:37:07
Time 01:19:21 | Step 21907 / 100000 | TPS 4.52778 | ETA 04:47:27
Time 01:19:32 | Step 21955 / 100000 | TPS 4.61847 | ETA 04:41:38
Time 01:19:42 | Step 22001 / 100000 | TPS 4.3167 | ETA 05:01:09
Time 01:19:53 | Step 22049 / 100000 | TPS 4.61554 | ETA 04:41:28
Time 01:20:03 | Step 22097 / 100000 | TPS 4.6148 | ETA 04:41:21
Time 01:20:13 | Step 22144 / 100000 | TPS 4.69208 | ETA 04:36:33
Time 01:20:23 | Step 22191 / 100000 | TPS 4.52534 | ETA 04:46:34
Time 01:20:34 | Step 22239 / 100000 | TPS 4.61466 | ETA 04:40:50
Time 01:20:44 | Step 22287 / 100000 | TPS 4.61964 | ETA 04:40:22
Time 01:20:55 | Step 22335 / 100000 | TPS 4.61925 | ETA 04:40:13
Time 01:21:05 | Step 22383 / 100000 | TPS 4.6206 | ETA 04:39:58
Time 01:21:15 | Step 22431 / 100000 | TPS 4.61899 | ETA 04:39:53
Time 01:21:26 | Step 22479 / 100000 | TPS 4.61666 | ETA 04:39:51
Time 01:21:36 | Step 22527 / 100000 | TPS 4.61585 | ETA 04:39:44
Time 01:21:47 | Step 22575 / 100000 | TPS 4.62485 | ETA 04:39:01
Time 01:21:57 | Step 22623 / 100000 | TPS 4.62027 | ETA 04:39:07
Time 01:22:07 | Step 22671 / 100000 | TPS 4.62128 | ETA 04:38:53
Time 01:22:17 | Step 22718 / 100000 | TPS 4.69937 | ETA 04:34:05
Time 01:22:28 | Step 22765 / 100000 | TPS 4.52924 | ETA 04:44:12
Time 01:22:38 | Step 22812 / 100000 | TPS 4.68962 | ETA 04:34:19
Time 01:22:48 | Step 22859 / 100000 | TPS 4.5355 | ETA 04:43:28
Time 01:22:58 | Step 22906 / 100000 | TPS 4.69752 | ETA 04:33:31
Time 01:23:08 | Step 22953 / 100000 | TPS 4.52248 | ETA 04:43:56
Time 01:23:18 | Step 23000 / 100000 | TPS 4.6962 | ETA 04:33:16
Time 01:23:29 | Step 23043 / 100000 | TPS 4.19671 | ETA 05:05:37
Time 01:23:39 | Step 23090 / 100000 | TPS 4.68952 | ETA 04:33:20
Time 01:23:49 | Step 23137 / 100000 | TPS 4.53141 | ETA 04:42:42
Time 01:23:59 | Step 23184 / 100000 | TPS 4.69916 | ETA 04:32:26
Time 01:24:10 | Step 23231 / 100000 | TPS 4.52631 | ETA 04:42:40
Time 01:24:20 | Step 23278 / 100000 | TPS 4.69547 | ETA 04:32:19
Time 01:24:30 | Step 23325 / 100000 | TPS 4.52252 | ETA 04:42:34
Time 01:24:40 | Step 23371 / 100000 | TPS 4.59935 | ETA 04:37:40
Time 01:24:50 | Step 23418 / 100000 | TPS 4.69422 | ETA 04:31:54
Time 01:25:00 | Step 23465 / 100000 | TPS 4.52782 | ETA 04:41:43
Time 01:25:11 | Step 23513 / 100000 | TPS 4.61503 | ETA 04:36:13
Time 01:25:21 | Step 23561 / 100000 | TPS 4.6137 | ETA 04:36:07
Time 01:25:31 | Step 23608 / 100000 | TPS 4.6986 | ETA 04:30:58
Time 01:25:41 | Step 23655 / 100000 | TPS 4.52853 | ETA 04:40:58
Time 01:25:52 | Step 23702 / 100000 | TPS 4.69345 | ETA 04:30:56
Time 01:26:02 | Step 23749 / 100000 | TPS 4.53481 | ETA 04:40:14
Time 01:26:12 | Step 23797 / 100000 | TPS 4.61793 | ETA 04:35:01
Time 01:26:23 | Step 23845 / 100000 | TPS 4.61888 | ETA 04:34:47
Time 01:26:33 | Step 23892 / 100000 | TPS 4.69985 | ETA 04:29:53
Time 01:26:43 | Step 23939 / 100000 | TPS 4.52624 | ETA 04:40:04
Time 01:26:53 | Step 23986 / 100000 | TPS 4.69886 | ETA 04:29:37
Time 01:27:03 | Step 24029 / 100000 | TPS 4.20473 | ETA 05:01:07
Time 01:27:14 | Step 24077 / 100000 | TPS 4.62226 | ETA 04:33:45
Time 01:27:24 | Step 24125 / 100000 | TPS 4.61947 | ETA 04:33:45
Time 01:27:34 | Step 24172 / 100000 | TPS 4.69999 | ETA 04:28:53
Time 01:27:44 | Step 24219 / 100000 | TPS 4.53005 | ETA 04:38:48
Time 01:27:54 | Step 24266 / 100000 | TPS 4.69644 | ETA 04:28:45
Time 01:28:05 | Step 24313 / 100000 | TPS 4.52195 | ETA 04:38:57
Time 01:28:15 | Step 24361 / 100000 | TPS 4.61961 | ETA 04:32:53
Time 01:28:25 | Step 24408 / 100000 | TPS 4.69501 | ETA 04:28:20
Time 01:28:36 | Step 24455 / 100000 | TPS 4.53085 | ETA 04:37:53
Time 01:28:46 | Step 24502 / 100000 | TPS 4.69667 | ETA 04:27:54
Time 01:28:56 | Step 24549 / 100000 | TPS 4.52357 | ETA 04:37:59
Time 01:29:06 | Step 24596 / 100000 | TPS 4.68681 | ETA 04:28:08
Time 01:29:16 | Step 24643 / 100000 | TPS 4.52098 | ETA 04:37:48
Time 01:29:27 | Step 24689 / 100000 | TPS 4.44718 | ETA 04:42:14
Time 01:29:37 | Step 24736 / 100000 | TPS 4.69605 | ETA 04:27:07
Time 01:29:47 | Step 24783 / 100000 | TPS 4.52273 | ETA 04:37:10
Time 01:29:57 | Step 24829 / 100000 | TPS 4.59884 | ETA 04:32:25
Time 01:30:07 | Step 24876 / 100000 | TPS 4.69209 | ETA 04:26:50
Time 01:30:17 | Step 24922 / 100000 | TPS 4.59751 | ETA 04:32:10
Time 01:30:28 | Step 24969 / 100000 | TPS 4.52557 | ETA 04:36:19
Time 01:30:38 | Step 25013 / 100000 | TPS 4.2919 | ETA 04:51:11
Time 01:30:48 | Step 25060 / 100000 | TPS 4.68979 | ETA 04:26:19
Time 01:30:58 | Step 25107 / 100000 | TPS 4.52043 | ETA 04:36:07
Time 01:31:09 | Step 25154 / 100000 | TPS 4.52104 | ETA 04:35:55
Time 01:31:19 | Step 25201 / 100000 | TPS 4.51835 | ETA 04:35:54
Time 01:31:29 | Step 25248 / 100000 | TPS 4.69546 | ETA 04:25:20
Time 01:31:39 | Step 25295 / 100000 | TPS 4.52643 | ETA 04:35:04
Time 01:31:49 | Step 25342 / 100000 | TPS 4.69867 | ETA 04:24:49
Time 01:32:00 | Step 25389 / 100000 | TPS 4.52542 | ETA 04:34:47
Time 01:32:10 | Step 25435 / 100000 | TPS 4.59994 | ETA 04:30:09
Time 01:32:20 | Step 25482 / 100000 | TPS 4.69035 | ETA 04:24:47
Time 01:32:30 | Step 25529 / 100000 | TPS 4.52259 | ETA 04:34:26
Time 01:32:40 | Step 25576 / 100000 | TPS 4.69563 | ETA 04:24:09
Time 01:32:51 | Step 25623 / 100000 | TPS 4.52551 | ETA 04:33:55
Time 01:33:01 | Step 25670 / 100000 | TPS 4.68628 | ETA 04:24:21
Time 01:33:11 | Step 25716 / 100000 | TPS 4.59562 | ETA 04:29:24
Time 01:33:21 | Step 25763 / 100000 | TPS 4.52123 | ETA 04:33:39
Time 01:33:31 | Step 25809 / 100000 | TPS 4.5931 | ETA 04:29:12
Time 01:33:41 | Step 25856 / 100000 | TPS 4.69168 | ETA 04:23:23
Time 01:33:51 | Step 25903 / 100000 | TPS 4.52893 | ETA 04:32:40
Time 01:34:01 | Step 25950 / 100000 | TPS 4.68882 | ETA 04:23:12
Time 01:34:12 | Step 25997 / 100000 | TPS 4.51699 | ETA 04:33:03
Time 01:34:22 | Step 26041 / 100000 | TPS 4.28523 | ETA 04:47:39
Time 01:34:32 | Step 26087 / 100000 | TPS 4.59585 | ETA 04:28:02
Time 01:34:42 | Step 26133 / 100000 | TPS 4.59926 | ETA 04:27:40
Time 01:34:52 | Step 26180 / 100000 | TPS 4.69478 | ETA 04:22:03
Time 01:35:03 | Step 26227 / 100000 | TPS 4.51977 | ETA 04:32:02
Time 01:35:13 | Step 26274 / 100000 | TPS 4.69301 | ETA 04:21:49
Time 01:35:23 | Step 26321 / 100000 | TPS 4.51931 | ETA 04:31:43
Time 01:35:33 | Step 26368 / 100000 | TPS 4.69344 | ETA 04:21:28
Time 01:35:43 | Step 26415 / 100000 | TPS 4.52439 | ETA 04:31:04
Time 01:35:54 | Step 26463 / 100000 | TPS 4.62218 | ETA 04:25:09
Time 01:36:04 | Step 26510 / 100000 | TPS 4.69765 | ETA 04:20:43
Time 01:36:14 | Step 26557 / 100000 | TPS 4.52596 | ETA 04:30:27
Time 01:36:24 | Step 26604 / 100000 | TPS 4.69042 | ETA 04:20:48
Time 01:36:35 | Step 26651 / 100000 | TPS 4.51874 | ETA 04:30:32
Time 01:36:45 | Step 26697 / 100000 | TPS 4.59552 | ETA 04:25:50
Time 01:36:55 | Step 26744 / 100000 | TPS 4.68993 | ETA 04:20:19
Time 01:37:05 | Step 26791 / 100000 | TPS 4.52589 | ETA 04:29:35
Time 01:37:15 | Step 26838 / 100000 | TPS 4.68868 | ETA 04:20:03
Time 01:37:25 | Step 26885 / 100000 | TPS 4.52051 | ETA 04:29:34
Time 01:37:35 | Step 26932 / 100000 | TPS 4.68939 | ETA 04:19:41
Time 01:37:46 | Step 26979 / 100000 | TPS 4.51714 | ETA 04:29:25
Time 01:37:56 | Step 27023 / 100000 | TPS 4.2821 | ETA 04:44:02
Time 01:38:06 | Step 27070 / 100000 | TPS 4.69265 | ETA 04:19:01
Time 01:38:17 | Step 27117 / 100000 | TPS 4.52127 | ETA 04:28:40
Time 01:38:27 | Step 27163 / 100000 | TPS 4.59841 | ETA 04:23:59
Time 01:38:37 | Step 27210 / 100000 | TPS 4.6873 | ETA 04:18:49
Time 01:38:47 | Step 27257 / 100000 | TPS 4.51868 | ETA 04:28:18
Time 01:38:57 | Step 27304 / 100000 | TPS 4.687 | ETA 04:18:30
Time 01:39:07 | Step 27351 / 100000 | TPS 4.53356 | ETA 04:27:04
Time 01:39:17 | Step 27398 / 100000 | TPS 4.69353 | ETA 04:17:48
Time 01:39:28 | Step 27445 / 100000 | TPS 4.5253 | ETA 04:27:13
Time 01:39:38 | Step 27493 / 100000 | TPS 4.61453 | ETA 04:21:52
Time 01:39:49 | Step 27541 / 100000 | TPS 4.61399 | ETA 04:21:44
Time 01:39:59 | Step 27588 / 100000 | TPS 4.69014 | ETA 04:17:19
Time 01:40:09 | Step 27635 / 100000 | TPS 4.51766 | ETA 04:26:58
Time 01:40:19 | Step 27682 / 100000 | TPS 4.69797 | ETA 04:16:33
Time 01:40:29 | Step 27729 / 100000 | TPS 4.52708 | ETA 04:26:04
Time 01:40:39 | Step 27776 / 100000 | TPS 4.691 | ETA 04:16:36
Time 01:40:50 | Step 27823 / 100000 | TPS 4.53049 | ETA 04:25:31
Time 01:41:00 | Step 27870 / 100000 | TPS 4.69853 | ETA 04:15:51
Time 01:41:10 | Step 27917 / 100000 | TPS 4.51885 | ETA 04:25:51
Time 01:41:21 | Step 27965 / 100000 | TPS 4.61384 | ETA 04:20:12
Time 01:41:31 | Step 28009 / 100000 | TPS 4.29251 | ETA 04:39:31
Time 01:41:41 | Step 28056 / 100000 | TPS 4.6964 | ETA 04:15:18
Time 01:41:51 | Step 28103 / 100000 | TPS 4.51961 | ETA 04:25:07
Time 01:42:01 | Step 28150 / 100000 | TPS 4.69043 | ETA 04:15:18
Time 01:42:12 | Step 28197 / 100000 | TPS 4.51793 | ETA 04:24:52
Time 01:42:22 | Step 28244 / 100000 | TPS 4.69256 | ETA 04:14:51
Time 01:42:32 | Step 28291 / 100000 | TPS 4.52581 | ETA 04:24:04
Time 01:42:42 | Step 28338 / 100000 | TPS 4.69141 | ETA 04:14:35
Time 01:42:52 | Step 28385 / 100000 | TPS 4.52599 | ETA 04:23:43
Time 01:43:02 | Step 28432 / 100000 | TPS 4.69019 | ETA 04:14:19
Time 01:43:13 | Step 28479 / 100000 | TPS 4.51891 | ETA 04:23:47
Time 01:43:23 | Step 28525 / 100000 | TPS 4.59983 | ETA 04:18:58
Time 01:43:33 | Step 28573 / 100000 | TPS 4.61496 | ETA 04:17:57
Time 01:43:43 | Step 28620 / 100000 | TPS 4.68975 | ETA 04:13:40
Time 01:43:54 | Step 28667 / 100000 | TPS 4.52487 | ETA 04:22:44
Time 01:44:04 | Step 28714 / 100000 | TPS 4.69623 | ETA 04:12:59
Time 01:44:14 | Step 28761 / 100000 | TPS 4.51909 | ETA 04:22:44
Time 01:44:24 | Step 28807 / 100000 | TPS 4.59733 | ETA 04:18:05
Time 01:44:34 | Step 28854 / 100000 | TPS 4.69687 | ETA 04:12:27
Time 01:44:45 | Step 28901 / 100000 | TPS 4.52733 | ETA 04:21:44
Time 01:44:55 | Step 28948 / 100000 | TPS 4.69044 | ETA 04:12:28
Time 01:45:05 | Step 28995 / 100000 | TPS 4.51893 | ETA 04:21:52
Time 01:45:15 | Step 29039 / 100000 | TPS 4.27692 | ETA 04:36:31
Time 01:45:25 | Step 29086 / 100000 | TPS 4.68844 | ETA 04:12:05
Time 01:45:36 | Step 29133 / 100000 | TPS 4.52503 | ETA 04:21:01
Time 01:45:46 | Step 29181 / 100000 | TPS 4.61584 | ETA 04:15:42
Time 01:45:56 | Step 29228 / 100000 | TPS 4.69836 | ETA 04:11:03
Time 01:46:06 | Step 29275 / 100000 | TPS 4.52533 | ETA 04:20:28
Time 01:46:16 | Step 29322 / 100000 | TPS 4.69512 | ETA 04:10:53
Time 01:46:27 | Step 29369 / 100000 | TPS 4.52525 | ETA 04:20:08
Time 01:46:37 | Step 29416 / 100000 | TPS 4.69521 | ETA 04:10:33
Time 01:46:47 | Step 29463 / 100000 | TPS 4.5413 | ETA 04:18:52
Time 01:46:57 | Step 29510 / 100000 | TPS 4.6998 | ETA 04:09:58
Time 01:47:08 | Step 29557 / 100000 | TPS 4.53381 | ETA 04:18:57
Time 01:47:18 | Step 29604 / 100000 | TPS 4.69466 | ETA 04:09:54
Time 01:47:28 | Step 29651 / 100000 | TPS 4.52339 | ETA 04:19:12
Time 01:47:38 | Step 29698 / 100000 | TPS 4.69671 | ETA 04:09:28
Time 01:47:48 | Step 29745 / 100000 | TPS 4.53077 | ETA 04:18:26
Time 01:47:59 | Step 29793 / 100000 | TPS 4.61586 | ETA 04:13:29
Time 01:48:09 | Step 29841 / 100000 | TPS 4.61504 | ETA 04:13:22
Time 01:48:19 | Step 29888 / 100000 | TPS 4.69913 | ETA 04:08:40
Time 01:48:30 | Step 29935 / 100000 | TPS 4.52667 | ETA 04:17:58
Time 01:48:40 | Step 29982 / 100000 | TPS 4.68853 | ETA 04:08:53
Time 01:48:50 | Step 30025 / 100000 | TPS 4.21042 | ETA 04:36:59
Time 01:49:00 | Step 30073 / 100000 | TPS 4.61936 | ETA 04:12:17
Time 01:49:11 | Step 30121 / 100000 | TPS 4.61553 | ETA 04:12:19
Time 01:49:21 | Step 30168 / 100000 | TPS 4.69865 | ETA 04:07:42
Time 01:49:31 | Step 30215 / 100000 | TPS 4.53042 | ETA 04:16:43
Time 01:49:41 | Step 30262 / 100000 | TPS 4.68631 | ETA 04:08:01
Time 01:49:51 | Step 30309 / 100000 | TPS 4.52506 | ETA 04:16:41
Time 01:50:02 | Step 30357 / 100000 | TPS 4.63331 | ETA 04:10:30
Time 01:50:12 | Step 30405 / 100000 | TPS 4.62034 | ETA 04:11:02
Time 01:50:22 | Step 30452 / 100000 | TPS 4.69481 | ETA 04:06:53
Time 01:50:32 | Step 30499 / 100000 | TPS 4.53477 | ETA 04:15:26
Time 01:50:43 | Step 30547 / 100000 | TPS 4.61539 | ETA 04:10:48
Time 01:50:53 | Step 30594 / 100000 | TPS 4.69307 | ETA 04:06:29
Time 01:51:03 | Step 30641 / 100000 | TPS 4.53887 | ETA 04:14:41
Time 01:51:14 | Step 30689 / 100000 | TPS 4.61957 | ETA 04:10:03
Time 01:51:24 | Step 30737 / 100000 | TPS 4.61886 | ETA 04:09:55
Time 01:51:34 | Step 30785 / 100000 | TPS 4.62162 | ETA 04:09:36
Time 01:51:45 | Step 30833 / 100000 | TPS 4.61582 | ETA 04:09:44
Time 01:51:55 | Step 30881 / 100000 | TPS 4.61387 | ETA 04:09:40
Time 01:52:05 | Step 30928 / 100000 | TPS 4.69647 | ETA 04:05:07
Time 01:52:16 | Step 30975 / 100000 | TPS 4.53548 | ETA 04:13:38
Time 01:52:26 | Step 31019 / 100000 | TPS 4.29622 | ETA 04:27:36
Time 01:52:36 | Step 31067 / 100000 | TPS 4.62814 | ETA 04:08:14
Time 01:52:46 | Step 31114 / 100000 | TPS 4.69943 | ETA 04:04:18
Time 01:52:57 | Step 31161 / 100000 | TPS 4.53036 | ETA 04:13:15
Time 01:53:07 | Step 31209 / 100000 | TPS 4.61668 | ETA 04:08:20
Time 01:53:17 | Step 31257 / 100000 | TPS 4.62001 | ETA 04:07:59
Time 01:53:28 | Step 31305 / 100000 | TPS 4.62148 | ETA 04:07:44
Time 01:53:38 | Step 31352 / 100000 | TPS 4.69905 | ETA 04:03:28
Time 01:53:48 | Step 31399 / 100000 | TPS 4.52882 | ETA 04:12:27
Time 01:53:58 | Step 31446 / 100000 | TPS 4.69833 | ETA 04:03:11
Time 01:54:08 | Step 31493 / 100000 | TPS 4.5264 | ETA 04:12:14
Time 01:54:19 | Step 31540 / 100000 | TPS 4.69635 | ETA 04:02:57
Time 01:54:29 | Step 31587 / 100000 | TPS 4.53199 | ETA 04:11:35
Time 01:54:39 | Step 31634 / 100000 | TPS 4.69807 | ETA 04:02:31
Time 01:54:49 | Step 31681 / 100000 | TPS 4.52561 | ETA 04:11:36
Time 01:54:59 | Step 31728 / 100000 | TPS 4.69541 | ETA 04:02:20
Time 01:55:10 | Step 31775 / 100000 | TPS 4.52761 | ETA 04:11:08
Time 01:55:20 | Step 31822 / 100000 | TPS 4.69471 | ETA 04:02:02
Time 01:55:30 | Step 31869 / 100000 | TPS 4.53645 | ETA 04:10:18
Time 01:55:40 | Step 31916 / 100000 | TPS 4.69968 | ETA 04:01:26
Time 01:55:50 | Step 31963 / 100000 | TPS 4.52839 | ETA 04:10:24
Time 01:56:01 | Step 32007 / 100000 | TPS 4.2909 | ETA 04:24:05
Time 01:56:11 | Step 32054 / 100000 | TPS 4.69494 | ETA 04:01:12
Time 01:56:21 | Step 32101 / 100000 | TPS 4.52255 | ETA 04:10:13
Time 01:56:31 | Step 32149 / 100000 | TPS 4.619 | ETA 04:04:49
Time 01:56:42 | Step 32197 / 100000 | TPS 4.61688 | ETA 04:04:45
Time 01:56:52 | Step 32245 / 100000 | TPS 4.61717 | ETA 04:04:34
Time 01:57:03 | Step 32293 / 100000 | TPS 4.62063 | ETA 04:04:13
Time 01:57:13 | Step 32340 / 100000 | TPS 4.69384 | ETA 04:00:14
Time 01:57:23 | Step 32387 / 100000 | TPS 4.52924 | ETA 04:08:48
Time 01:57:33 | Step 32435 / 100000 | TPS 4.61877 | ETA 04:03:48
Time 01:57:44 | Step 32483 / 100000 | TPS 4.61556 | ETA 04:03:48
Time 01:57:54 | Step 32531 / 100000 | TPS 4.61883 | ETA 04:03:27
Time 01:58:05 | Step 32579 / 100000 | TPS 4.61373 | ETA 04:03:33
Time 01:58:15 | Step 32626 / 100000 | TPS 4.6979 | ETA 03:59:01
Time 01:58:25 | Step 32673 / 100000 | TPS 4.52523 | ETA 04:07:58
Time 01:58:35 | Step 32720 / 100000 | TPS 4.69931 | ETA 03:58:37
Time 01:58:45 | Step 32767 / 100000 | TPS 4.5383 | ETA 04:06:54
Time 01:58:56 | Step 32815 / 100000 | TPS 4.61795 | ETA 04:02:28
Time 01:59:06 | Step 32862 / 100000 | TPS 4.6982 | ETA 03:58:10
Time 01:59:16 | Step 32909 / 100000 | TPS 4.5315 | ETA 04:06:45
Time 01:59:27 | Step 32957 / 100000 | TPS 4.61634 | ETA 04:02:02
Time 01:59:37 | Step 33001 / 100000 | TPS 4.27831 | ETA 04:21:00
Time 01:59:47 | Step 33049 / 100000 | TPS 4.62994 | ETA 04:01:00
Time 01:59:58 | Step 33097 / 100000 | TPS 4.62136 | ETA 04:01:16
Time 02:00:08 | Step 33145 / 100000 | TPS 4.61608 | ETA 04:01:23
Time 02:00:18 | Step 33193 / 100000 | TPS 4.61465 | ETA 04:01:17
Time 02:00:28 | Step 33240 / 100000 | TPS 4.69869 | ETA 03:56:48
Time 02:00:39 | Step 33287 / 100000 | TPS 4.52401 | ETA 04:05:46
Time 02:00:49 | Step 33334 / 100000 | TPS 4.69554 | ETA 03:56:37
Time 02:00:59 | Step 33381 / 100000 | TPS 4.53458 | ETA 04:04:51
Time 02:01:10 | Step 33429 / 100000 | TPS 4.61539 | ETA 04:00:23
Time 02:01:20 | Step 33477 / 100000 | TPS 4.61363 | ETA 04:00:18
Time 02:01:30 | Step 33524 / 100000 | TPS 4.69506 | ETA 03:55:58
Time 02:01:40 | Step 33571 / 100000 | TPS 4.53162 | ETA 04:04:18
Time 02:01:50 | Step 33618 / 100000 | TPS 4.69678 | ETA 03:55:33
Time 02:02:01 | Step 33665 / 100000 | TPS 4.53817 | ETA 04:03:37
Time 02:02:11 | Step 33712 / 100000 | TPS 4.69955 | ETA 03:55:05
Time 02:02:21 | Step 33759 / 100000 | TPS 4.53582 | ETA 04:03:23
Time 02:02:31 | Step 33807 / 100000 | TPS 4.61859 | ETA 03:58:51
Time 02:02:42 | Step 33855 / 100000 | TPS 4.61402 | ETA 03:58:55
Time 02:02:52 | Step 33902 / 100000 | TPS 4.69173 | ETA 03:54:48
Time 02:03:02 | Step 33949 / 100000 | TPS 4.54138 | ETA 04:02:24
Time 02:03:13 | Step 33997 / 100000 | TPS 4.62011 | ETA 03:58:06
Time 02:03:23 | Step 34041 / 100000 | TPS 4.29785 | ETA 04:15:46
Time 02:03:33 | Step 34089 / 100000 | TPS 4.61784 | ETA 03:57:53
Time 02:03:44 | Step 34137 / 100000 | TPS 4.61721 | ETA 03:57:44
Time 02:03:54 | Step 34185 / 100000 | TPS 4.6178 | ETA 03:57:32
Time 02:04:04 | Step 34233 / 100000 | TPS 4.62446 | ETA 03:57:01
Time 02:04:15 | Step 34281 / 100000 | TPS 4.62388 | ETA 03:56:52
Time 02:04:25 | Step 34329 / 100000 | TPS 4.61432 | ETA 03:57:12
Time 02:04:36 | Step 34377 / 100000 | TPS 4.61435 | ETA 03:57:01
Time 02:04:46 | Step 34425 / 100000 | TPS 4.61418 | ETA 03:56:51
Time 02:04:56 | Step 34473 / 100000 | TPS 4.6152 | ETA 03:56:38
Time 02:05:07 | Step 34521 / 100000 | TPS 4.61582 | ETA 03:56:25
Time 02:05:17 | Step 34569 / 100000 | TPS 4.63028 | ETA 03:55:31
Time 02:05:28 | Step 34617 / 100000 | TPS 4.61788 | ETA 03:55:58
Time 02:05:38 | Step 34665 / 100000 | TPS 4.61721 | ETA 03:55:50
Time 02:05:48 | Step 34712 / 100000 | TPS 4.69875 | ETA 03:51:34
Time 02:05:58 | Step 34759 / 100000 | TPS 4.53505 | ETA 03:59:45
Time 02:06:08 | Step 34806 / 100000 | TPS 4.68834 | ETA 03:51:45
Time 02:06:19 | Step 34853 / 100000 | TPS 4.53779 | ETA 03:59:16
Time 02:06:29 | Step 34901 / 100000 | TPS 4.78694 | ETA 03:46:39
Time 02:06:39 | Step 34948 / 100000 | TPS 4.53369 | ETA 03:59:08
Time 02:06:49 | Step 34996 / 100000 | TPS 4.61727 | ETA 03:54:38
Time 02:07:00 | Step 35040 / 100000 | TPS 4.28814 | ETA 04:12:28
Time 02:07:10 | Step 35088 / 100000 | TPS 4.61347 | ETA 03:54:30
Time 02:07:21 | Step 35135 / 100000 | TPS 4.53403 | ETA 03:58:26
Time 02:07:31 | Step 35183 / 100000 | TPS 4.61826 | ETA 03:53:54
Time 02:07:41 | Step 35231 / 100000 | TPS 4.61532 | ETA 03:53:53
Time 02:07:52 | Step 35279 / 100000 | TPS 4.61412 | ETA 03:53:46
Time 02:08:02 | Step 35326 / 100000 | TPS 4.69712 | ETA 03:49:28
Time 02:08:12 | Step 35373 / 100000 | TPS 4.52773 | ETA 03:57:53
Time 02:08:22 | Step 35420 / 100000 | TPS 4.69599 | ETA 03:49:12
Time 02:08:32 | Step 35467 / 100000 | TPS 4.53332 | ETA 03:57:15
Time 02:08:43 | Step 35515 / 100000 | TPS 4.61868 | ETA 03:52:41
Time 02:08:53 | Step 35563 / 100000 | TPS 4.61858 | ETA 03:52:31
Time 02:09:04 | Step 35611 / 100000 | TPS 4.61468 | ETA 03:52:33
Time 02:09:14 | Step 35658 / 100000 | TPS 4.69029 | ETA 03:48:38
Time 02:09:24 | Step 35705 / 100000 | TPS 4.52668 | ETA 03:56:43
Time 02:09:34 | Step 35753 / 100000 | TPS 4.62838 | ETA 03:51:21
Time 02:09:45 | Step 35801 / 100000 | TPS 4.62416 | ETA 03:51:23
Time 02:09:55 | Step 35848 / 100000 | TPS 4.69742 | ETA 03:47:36
Time 02:10:05 | Step 35895 / 100000 | TPS 4.53175 | ETA 03:55:45
Time 02:10:16 | Step 35943 / 100000 | TPS 4.6225 | ETA 03:50:57
Time 02:10:26 | Step 35991 / 100000 | TPS 4.62138 | ETA 03:50:50
Time 02:10:36 | Step 36035 / 100000 | TPS 4.299 | ETA 04:07:59
Time 02:10:47 | Step 36083 / 100000 | TPS 4.6239 | ETA 03:50:23
Time 02:10:57 | Step 36131 / 100000 | TPS 4.62067 | ETA 03:50:22
Time 02:11:07 | Step 36179 / 100000 | TPS 4.61316 | ETA 03:50:34
Time 02:11:18 | Step 36227 / 100000 | TPS 4.61776 | ETA 03:50:10
Time 02:11:28 | Step 36275 / 100000 | TPS 4.61871 | ETA 03:49:57
Time 02:11:39 | Step 36323 / 100000 | TPS 4.61753 | ETA 03:49:50
Time 02:11:49 | Step 36371 / 100000 | TPS 4.624 | ETA 03:49:20
Time 02:11:59 | Step 36419 / 100000 | TPS 4.62009 | ETA 03:49:21
Time 02:12:10 | Step 36467 / 100000 | TPS 4.61372 | ETA 03:49:30
Time 02:12:20 | Step 36514 / 100000 | TPS 4.69957 | ETA 03:45:08
Time 02:12:30 | Step 36561 / 100000 | TPS 4.52905 | ETA 03:53:27
Time 02:12:40 | Step 36608 / 100000 | TPS 4.6918 | ETA 03:45:11
Time 02:12:50 | Step 36655 / 100000 | TPS 4.54665 | ETA 03:52:12
Time 02:13:01 | Step 36703 / 100000 | TPS 4.62263 | ETA 03:48:12
Time 02:13:11 | Step 36751 / 100000 | TPS 4.6255 | ETA 03:47:53
Time 02:13:22 | Step 36799 / 100000 | TPS 4.625 | ETA 03:47:45
Time 02:13:32 | Step 36847 / 100000 | TPS 4.61514 | ETA 03:48:03
Time 02:13:42 | Step 36895 / 100000 | TPS 4.61663 | ETA 03:47:49
Time 02:13:53 | Step 36943 / 100000 | TPS 4.62484 | ETA 03:47:14
Time 02:14:03 | Step 36991 / 100000 | TPS 4.62799 | ETA 03:46:54
Time 02:14:13 | Step 37035 / 100000 | TPS 4.30173 | ETA 04:03:57
Time 02:14:24 | Step 37083 / 100000 | TPS 4.6223 | ETA 03:46:51
Time 02:14:34 | Step 37131 / 100000 | TPS 4.62409 | ETA 03:46:35
Time 02:14:45 | Step 37179 / 100000 | TPS 4.61909 | ETA 03:46:40
Time 02:14:55 | Step 37227 / 100000 | TPS 4.62413 | ETA 03:46:15
Time 02:15:05 | Step 37275 / 100000 | TPS 4.63364 | ETA 03:45:36
Time 02:15:16 | Step 37323 / 100000 | TPS 4.62813 | ETA 03:45:42
Time 02:15:26 | Step 37371 / 100000 | TPS 4.61827 | ETA 03:46:01
Time 02:15:36 | Step 37419 / 100000 | TPS 4.61736 | ETA 03:45:53
Time 02:15:46 | Step 37466 / 100000 | TPS 4.6958 | ETA 03:41:56
Time 02:15:57 | Step 37513 / 100000 | TPS 4.52702 | ETA 03:50:03
Time 02:16:07 | Step 37561 / 100000 | TPS 4.62592 | ETA 03:44:57
Time 02:16:18 | Step 37609 / 100000 | TPS 4.62123 | ETA 03:45:00
Time 02:16:28 | Step 37657 / 100000 | TPS 4.6166 | ETA 03:45:04
Time 02:16:38 | Step 37705 / 100000 | TPS 4.61684 | ETA 03:44:52
Time 02:16:49 | Step 37753 / 100000 | TPS 4.62021 | ETA 03:44:32
Time 02:16:59 | Step 37800 / 100000 | TPS 4.69721 | ETA 03:40:41
Time 02:17:09 | Step 37847 / 100000 | TPS 4.53366 | ETA 03:48:29
Time 02:17:20 | Step 37895 / 100000 | TPS 4.62304 | ETA 03:43:53
Time 02:17:30 | Step 37943 / 100000 | TPS 4.62117 | ETA 03:43:48
Time 02:17:40 | Step 37991 / 100000 | TPS 4.6213 | ETA 03:43:38
Time 02:17:51 | Step 38035 / 100000 | TPS 4.29068 | ETA 04:00:41
Time 02:18:01 | Step 38083 / 100000 | TPS 4.62143 | ETA 03:43:17
Time 02:18:11 | Step 38131 / 100000 | TPS 4.6198 | ETA 03:43:12
Time 02:18:22 | Step 38179 / 100000 | TPS 4.62318 | ETA 03:42:51
Time 02:18:32 | Step 38227 / 100000 | TPS 4.61918 | ETA 03:42:53
Time 02:18:42 | Step 38275 / 100000 | TPS 4.62841 | ETA 03:42:16
Time 02:18:53 | Step 38323 / 100000 | TPS 4.62707 | ETA 03:42:09
Time 02:19:03 | Step 38371 / 100000 | TPS 4.6159 | ETA 03:42:31
Time 02:19:14 | Step 38419 / 100000 | TPS 4.62471 | ETA 03:41:55
Time 02:19:24 | Step 38467 / 100000 | TPS 4.62777 | ETA 03:41:36
Time 02:19:34 | Step 38515 / 100000 | TPS 4.62476 | ETA 03:41:34
Time 02:19:45 | Step 38563 / 100000 | TPS 4.62645 | ETA 03:41:19
Time 02:19:55 | Step 38611 / 100000 | TPS 4.62222 | ETA 03:41:21
Time 02:20:06 | Step 38659 / 100000 | TPS 4.6203 | ETA 03:41:16
Time 02:20:16 | Step 38707 / 100000 | TPS 4.61589 | ETA 03:41:18
Time 02:20:26 | Step 38755 / 100000 | TPS 4.62839 | ETA 03:40:32
Time 02:20:37 | Step 38803 / 100000 | TPS 4.62395 | ETA 03:40:34
Time 02:20:47 | Step 38851 / 100000 | TPS 4.61721 | ETA 03:40:43
Time 02:20:57 | Step 38899 / 100000 | TPS 4.62084 | ETA 03:40:22
Time 02:21:08 | Step 38947 / 100000 | TPS 4.62042 | ETA 03:40:13
Time 02:21:18 | Step 38994 / 100000 | TPS 4.69889 | ETA 03:36:23
Time 02:21:28 | Step 39037 / 100000 | TPS 4.21143 | ETA 04:01:15
Time 02:21:38 | Step 39085 / 100000 | TPS 4.61854 | ETA 03:39:49
Time 02:21:49 | Step 39133 / 100000 | TPS 4.62177 | ETA 03:39:29
Time 02:21:59 | Step 39180 / 100000 | TPS 4.69576 | ETA 03:35:52
Time 02:22:09 | Step 39227 / 100000 | TPS 4.52278 | ETA 03:43:57
Time 02:22:20 | Step 39275 / 100000 | TPS 4.61675 | ETA 03:39:13
Time 02:22:30 | Step 39323 / 100000 | TPS 4.61535 | ETA 03:39:06
Time 02:22:40 | Step 39371 / 100000 | TPS 4.62804 | ETA 03:38:20
Time 02:22:51 | Step 39419 / 100000 | TPS 4.62587 | ETA 03:38:16
Time 02:23:01 | Step 39467 / 100000 | TPS 4.6262 | ETA 03:38:04
Time 02:23:12 | Step 39515 / 100000 | TPS 4.62134 | ETA 03:38:08
Time 02:23:22 | Step 39562 / 100000 | TPS 4.69941 | ETA 03:34:20
Time 02:23:32 | Step 39609 / 100000 | TPS 4.53212 | ETA 03:42:05
Time 02:23:42 | Step 39657 / 100000 | TPS 4.63023 | ETA 03:37:12
Time 02:23:53 | Step 39705 / 100000 | TPS 4.6312 | ETA 03:36:59
Time 02:24:03 | Step 39753 / 100000 | TPS 4.62203 | ETA 03:37:14
Time 02:24:13 | Step 39801 / 100000 | TPS 4.61621 | ETA 03:37:20
Time 02:24:24 | Step 39849 / 100000 | TPS 4.61883 | ETA 03:37:02
Time 02:24:34 | Step 39897 / 100000 | TPS 4.62035 | ETA 03:36:48
Time 02:24:45 | Step 39945 / 100000 | TPS 4.62275 | ETA 03:36:31
Time 02:24:55 | Step 39993 / 100000 | TPS 4.62128 | ETA 03:36:24
Time 02:25:05 | Step 40037 / 100000 | TPS 4.2984 | ETA 03:52:30
Time 02:25:16 | Step 40085 / 100000 | TPS 4.61782 | ETA 03:36:14
Time 02:25:26 | Step 40133 / 100000 | TPS 4.61783 | ETA 03:36:04
Time 02:25:36 | Step 40181 / 100000 | TPS 4.61711 | ETA 03:35:55
Time 02:25:47 | Step 40229 / 100000 | TPS 4.6192 | ETA 03:35:39
Time 02:25:57 | Step 40277 / 100000 | TPS 4.62379 | ETA 03:35:16
Time 02:26:08 | Step 40325 / 100000 | TPS 4.6227 | ETA 03:35:09
Time 02:26:18 | Step 40373 / 100000 | TPS 4.61568 | ETA 03:35:18
Time 02:26:28 | Step 40419 / 100000 | TPS 4.55365 | ETA 03:38:04
Time 02:26:38 | Step 40459 / 100000 | TPS 3.84174 | ETA 04:18:18
Time 02:26:49 | Step 40503 / 100000 | TPS 4.31587 | ETA 03:49:45
Time 02:26:59 | Step 40551 / 100000 | TPS 4.6276 | ETA 03:34:06
Time 02:27:09 | Step 40599 / 100000 | TPS 4.62386 | ETA 03:34:06
Time 02:27:20 | Step 40647 / 100000 | TPS 4.62601 | ETA 03:33:50
Time 02:27:30 | Step 40695 / 100000 | TPS 4.61675 | ETA 03:34:05
Time 02:27:41 | Step 40743 / 100000 | TPS 4.61703 | ETA 03:33:54
Time 02:27:51 | Step 40791 / 100000 | TPS 4.61664 | ETA 03:33:45
Time 02:28:01 | Step 40839 / 100000 | TPS 4.62129 | ETA 03:33:21
Time 02:28:12 | Step 40887 / 100000 | TPS 4.62456 | ETA 03:33:02
Time 02:28:22 | Step 40935 / 100000 | TPS 4.62572 | ETA 03:32:48
Time 02:28:32 | Step 40982 / 100000 | TPS 4.69726 | ETA 03:29:24
Time 02:28:42 | Step 41025 / 100000 | TPS 4.20056 | ETA 03:53:59
Time 02:28:52 | Step 41072 / 100000 | TPS 4.69983 | ETA 03:28:58
Time 02:29:03 | Step 41119 / 100000 | TPS 4.53542 | ETA 03:36:22
Time 02:29:13 | Step 41167 / 100000 | TPS 4.62496 | ETA 03:32:00
Time 02:29:24 | Step 41215 / 100000 | TPS 4.61861 | ETA 03:32:07
Time 02:29:34 | Step 41263 / 100000 | TPS 4.61822 | ETA 03:31:58
Time 02:29:44 | Step 41311 / 100000 | TPS 4.61872 | ETA 03:31:46
Time 02:29:54 | Step 41358 / 100000 | TPS 4.69857 | ETA 03:28:00
Time 02:30:05 | Step 41405 / 100000 | TPS 4.5278 | ETA 03:35:41
Time 02:30:15 | Step 41453 / 100000 | TPS 4.61974 | ETA 03:31:13
Time 02:30:25 | Step 41501 / 100000 | TPS 4.61628 | ETA 03:31:12
Time 02:30:36 | Step 41549 / 100000 | TPS 4.62201 | ETA 03:30:46
Time 02:30:46 | Step 41596 / 100000 | TPS 4.69866 | ETA 03:27:09
Time 02:30:56 | Step 41643 / 100000 | TPS 4.52773 | ETA 03:34:48
Time 02:31:06 | Step 41690 / 100000 | TPS 4.69449 | ETA 03:27:00
Time 02:31:17 | Step 41737 / 100000 | TPS 4.53577 | ETA 03:34:05
Time 02:31:27 | Step 41785 / 100000 | TPS 4.61971 | ETA 03:30:01
Time 02:31:37 | Step 41833 / 100000 | TPS 4.61958 | ETA 03:29:51
Time 02:31:47 | Step 41880 / 100000 | TPS 4.69602 | ETA 03:26:16
Time 02:31:58 | Step 41927 / 100000 | TPS 4.52365 | ETA 03:33:57
Time 02:32:08 | Step 41974 / 100000 | TPS 4.69089 | ETA 03:26:09
Time 02:32:18 | Step 42017 / 100000 | TPS 4.21034 | ETA 03:49:31
Time 02:32:28 | Step 42065 / 100000 | TPS 4.61959 | ETA 03:29:01
Time 02:32:39 | Step 42113 / 100000 | TPS 4.61862 | ETA 03:28:53
Time 02:32:49 | Step 42161 / 100000 | TPS 4.61493 | ETA 03:28:53
Time 02:32:59 | Step 42208 / 100000 | TPS 4.69594 | ETA 03:25:06
Time 02:33:10 | Step 42255 / 100000 | TPS 4.5292 | ETA 03:32:29
Time 02:33:20 | Step 42302 / 100000 | TPS 4.69257 | ETA 03:24:55
Time 02:33:30 | Step 42349 / 100000 | TPS 4.54077 | ETA 03:31:36
Time 02:33:40 | Step 42397 / 100000 | TPS 4.62462 | ETA 03:27:35
Time 02:33:51 | Step 42445 / 100000 | TPS 4.61775 | ETA 03:27:43
Time 02:34:01 | Step 42493 / 100000 | TPS 4.61857 | ETA 03:27:31
Time 02:34:12 | Step 42541 / 100000 | TPS 4.61811 | ETA 03:27:22
Time 02:34:22 | Step 42589 / 100000 | TPS 4.61732 | ETA 03:27:13
Time 02:34:32 | Step 42637 / 100000 | TPS 4.62114 | ETA 03:26:53
Time 02:34:43 | Step 42685 / 100000 | TPS 4.61815 | ETA 03:26:50
Time 02:34:53 | Step 42733 / 100000 | TPS 4.61624 | ETA 03:26:45
Time 02:35:03 | Step 42781 / 100000 | TPS 4.61423 | ETA 03:26:40
Time 02:35:14 | Step 42828 / 100000 | TPS 4.6962 | ETA 03:22:54
Time 02:35:24 | Step 42875 / 100000 | TPS 4.52698 | ETA 03:30:18
Time 02:35:34 | Step 42922 / 100000 | TPS 4.69313 | ETA 03:22:42
Time 02:35:44 | Step 42969 / 100000 | TPS 4.53221 | ETA 03:29:43
Time 02:35:55 | Step 43013 / 100000 | TPS 4.29238 | ETA 03:41:16
Time 02:36:05 | Step 43060 / 100000 | TPS 4.69986 | ETA 03:21:55
Time 02:36:15 | Step 43107 / 100000 | TPS 4.5245 | ETA 03:29:34
Time 02:36:25 | Step 43154 / 100000 | TPS 4.69528 | ETA 03:21:47
Time 02:36:35 | Step 43201 / 100000 | TPS 4.51792 | ETA 03:29:31
Time 02:36:46 | Step 43249 / 100000 | TPS 4.62516 | ETA 03:24:30
Time 02:36:56 | Step 43297 / 100000 | TPS 4.61619 | ETA 03:24:43
Time 02:37:06 | Step 43344 / 100000 | TPS 4.69808 | ETA 03:20:59
Time 02:37:16 | Step 43391 / 100000 | TPS 4.53293 | ETA 03:28:08
Time 02:37:27 | Step 43439 / 100000 | TPS 4.61493 | ETA 03:24:16
Time 02:37:37 | Step 43486 / 100000 | TPS 4.69669 | ETA 03:20:32
Time 02:37:47 | Step 43533 / 100000 | TPS 4.52769 | ETA 03:27:51
Time 02:37:58 | Step 43581 / 100000 | TPS 4.62355 | ETA 03:23:22
Time 02:38:08 | Step 43629 / 100000 | TPS 4.61389 | ETA 03:23:37
Time 02:38:18 | Step 43677 / 100000 | TPS 4.61963 | ETA 03:23:12
Time 02:38:29 | Step 43725 / 100000 | TPS 4.61561 | ETA 03:23:12
Time 02:38:39 | Step 43772 / 100000 | TPS 4.69768 | ETA 03:19:29
Time 02:38:49 | Step 43819 / 100000 | TPS 4.52867 | ETA 03:26:45
Time 02:39:00 | Step 43867 / 100000 | TPS 4.61718 | ETA 03:22:37
Time 02:39:10 | Step 43915 / 100000 | TPS 4.62452 | ETA 03:22:07
Time 02:39:20 | Step 43963 / 100000 | TPS 4.61765 | ETA 03:22:15
Time 02:39:31 | Step 44007 / 100000 | TPS 4.29083 | ETA 03:37:29
Time 02:39:41 | Step 44054 / 100000 | TPS 4.69996 | ETA 03:18:23
Time 02:39:51 | Step 44101 / 100000 | TPS 4.51578 | ETA 03:26:18
Time 02:40:01 | Step 44149 / 100000 | TPS 4.62566 | ETA 03:21:14
Time 02:40:12 | Step 44197 / 100000 | TPS 4.62104 | ETA 03:21:15
Time 02:40:22 | Step 44244 / 100000 | TPS 4.69944 | ETA 03:17:44
Time 02:40:32 | Step 44291 / 100000 | TPS 4.52191 | ETA 03:25:19
Time 02:40:42 | Step 44338 / 100000 | TPS 4.68964 | ETA 03:17:49
Time 02:40:53 | Step 44385 / 100000 | TPS 4.51924 | ETA 03:25:06
Time 02:41:03 | Step 44432 / 100000 | TPS 4.69904 | ETA 03:17:05
Time 02:41:13 | Step 44479 / 100000 | TPS 4.53425 | ETA 03:24:04
Time 02:41:23 | Step 44526 / 100000 | TPS 4.69554 | ETA 03:16:54
Time 02:41:33 | Step 44573 / 100000 | TPS 4.52372 | ETA 03:24:12
Time 02:41:43 | Step 44620 / 100000 | TPS 4.69528 | ETA 03:16:34
Time 02:41:54 | Step 44667 / 100000 | TPS 4.52547 | ETA 03:23:47
Time 02:42:04 | Step 44714 / 100000 | TPS 4.68735 | ETA 03:16:34
Time 02:42:14 | Step 44761 / 100000 | TPS 4.53337 | ETA 03:23:04
Time 02:42:24 | Step 44808 / 100000 | TPS 4.69348 | ETA 03:15:59
Time 02:42:35 | Step 44855 / 100000 | TPS 4.52839 | ETA 03:22:57
Time 02:42:45 | Step 44902 / 100000 | TPS 4.69197 | ETA 03:15:43
Time 02:42:55 | Step 44949 / 100000 | TPS 4.5202 | ETA 03:22:58
Time 02:43:05 | Step 44996 / 100000 | TPS 4.68997 | ETA 03:15:27
Time 02:43:15 | Step 45039 / 100000 | TPS 4.20905 | ETA 03:37:37
Time 02:43:25 | Step 45086 / 100000 | TPS 4.69983 | ETA 03:14:44
Time 02:43:36 | Step 45133 / 100000 | TPS 4.52844 | ETA 03:21:56
Time 02:43:46 | Step 45180 / 100000 | TPS 4.69235 | ETA 03:14:42
Time 02:43:56 | Step 45227 / 100000 | TPS 4.5216 | ETA 03:21:53
Time 02:44:06 | Step 45274 / 100000 | TPS 4.6872 | ETA 03:14:35
Time 02:44:16 | Step 45321 / 100000 | TPS 4.52285 | ETA 03:21:29
Time 02:44:26 | Step 45368 / 100000 | TPS 4.69999 | ETA 03:13:43
Time 02:44:37 | Step 45415 / 100000 | TPS 4.52746 | ETA 03:20:56
Time 02:44:47 | Step 45462 / 100000 | TPS 4.69846 | ETA 03:13:27
Time 02:44:57 | Step 45509 / 100000 | TPS 4.52582 | ETA 03:20:40
Time 02:45:07 | Step 45556 / 100000 | TPS 4.69282 | ETA 03:13:21
Time 02:45:18 | Step 45603 / 100000 | TPS 4.51827 | ETA 03:20:39
Time 02:45:28 | Step 45650 / 100000 | TPS 4.69935 | ETA 03:12:45
Time 02:45:38 | Step 45697 / 100000 | TPS 4.52527 | ETA 03:19:59
Time 02:45:48 | Step 45744 / 100000 | TPS 4.69588 | ETA 03:12:33
Time 02:45:58 | Step 45791 / 100000 | TPS 4.52347 | ETA 03:19:43
Time 02:46:08 | Step 45838 / 100000 | TPS 4.68966 | ETA 03:12:29
Time 02:46:19 | Step 45885 / 100000 | TPS 4.52487 | ETA 03:19:19
Time 02:46:29 | Step 45932 / 100000 | TPS 4.69274 | ETA 03:12:01
Time 02:46:39 | Step 45979 / 100000 | TPS 4.53039 | ETA 03:18:44
Time 02:46:49 | Step 46023 / 100000 | TPS 4.28578 | ETA 03:29:54
Time 02:46:59 | Step 46070 / 100000 | TPS 4.69444 | ETA 03:11:28
Time 02:47:10 | Step 46117 / 100000 | TPS 4.51747 | ETA 03:18:47
Time 02:47:20 | Step 46164 / 100000 | TPS 4.69319 | ETA 03:11:11
Time 02:47:30 | Step 46210 / 100000 | TPS 4.59709 | ETA 03:15:00
Time 02:47:40 | Step 46257 / 100000 | TPS 4.5249 | ETA 03:17:57
Time 02:47:50 | Step 46303 / 100000 | TPS 4.59822 | ETA 03:14:37
Time 02:48:00 | Step 46349 / 100000 | TPS 4.59608 | ETA 03:14:33
Time 02:48:10 | Step 46395 / 100000 | TPS 4.59699 | ETA 03:14:20
Time 02:48:20 | Step 46441 / 100000 | TPS 4.59152 | ETA 03:14:24
Time 02:48:30 | Step 46487 / 100000 | TPS 4.59852 | ETA 03:13:57
Time 02:48:40 | Step 46533 / 100000 | TPS 4.59857 | ETA 03:13:46
Time 02:48:50 | Step 46580 / 100000 | TPS 4.69059 | ETA 03:09:48
Time 02:49:01 | Step 46627 / 100000 | TPS 4.52121 | ETA 03:16:45
Time 02:49:11 | Step 46674 / 100000 | TPS 4.69394 | ETA 03:09:20
Time 02:49:21 | Step 46721 / 100000 | TPS 4.52062 | ETA 03:16:25
Time 02:49:31 | Step 46768 / 100000 | TPS 4.69374 | ETA 03:09:01
Time 02:49:41 | Step 46814 / 100000 | TPS 4.59862 | ETA 03:12:45
Time 02:49:52 | Step 46861 / 100000 | TPS 4.53728 | ETA 03:15:11
Time 02:50:02 | Step 46908 / 100000 | TPS 4.69771 | ETA 03:08:21
Time 02:50:12 | Step 46955 / 100000 | TPS 4.52979 | ETA 03:15:10
Time 02:50:23 | Step 47001 / 100000 | TPS 4.29527 | ETA 03:25:38
Time 02:50:33 | Step 47048 / 100000 | TPS 4.69301 | ETA 03:08:03
Time 02:50:43 | Step 47095 / 100000 | TPS 4.52434 | ETA 03:14:53
Time 02:50:53 | Step 47143 / 100000 | TPS 4.61974 | ETA 03:10:41
Time 02:51:04 | Step 47191 / 100000 | TPS 4.61555 | ETA 03:10:41
Time 02:51:14 | Step 47239 / 100000 | TPS 4.61532 | ETA 03:10:31
Time 02:51:24 | Step 47286 / 100000 | TPS 4.68953 | ETA 03:07:20
Time 02:51:35 | Step 47333 / 100000 | TPS 4.51791 | ETA 03:14:17
Time 02:51:45 | Step 47379 / 100000 | TPS 4.59817 | ETA 03:10:43
Time 02:51:55 | Step 47426 / 100000 | TPS 4.69328 | ETA 03:06:41
Time 02:52:05 | Step 47473 / 100000 | TPS 4.52693 | ETA 03:13:23
Time 02:52:15 | Step 47520 / 100000 | TPS 4.68988 | ETA 03:06:30
Time 02:52:25 | Step 47567 / 100000 | TPS 4.52033 | ETA 03:13:19
Time 02:52:35 | Step 47614 / 100000 | TPS 4.69211 | ETA 03:06:04
Time 02:52:46 | Step 47661 / 100000 | TPS 4.52162 | ETA 03:12:55
Time 02:52:56 | Step 47707 / 100000 | TPS 4.59967 | ETA 03:09:28
Time 02:53:06 | Step 47755 / 100000 | TPS 4.61636 | ETA 03:08:37
Time 02:53:16 | Step 47802 / 100000 | TPS 4.6895 | ETA 03:05:30
Time 02:53:27 | Step 47849 / 100000 | TPS 4.51861 | ETA 03:12:21
Time 02:53:37 | Step 47895 / 100000 | TPS 4.59825 | ETA 03:08:51
Time 02:53:47 | Step 47942 / 100000 | TPS 4.6878 | ETA 03:05:04
Time 02:53:57 | Step 47988 / 100000 | TPS 4.59655 | ETA 03:08:35
Time 02:54:07 | Step 48031 / 100000 | TPS 4.20272 | ETA 03:26:05
Time 02:54:17 | Step 48078 / 100000 | TPS 4.69 | ETA 03:04:30
Time 02:54:27 | Step 48125 / 100000 | TPS 4.52506 | ETA 03:11:03
Time 02:54:37 | Step 48172 / 100000 | TPS 4.69353 | ETA 03:04:02
Time 02:54:48 | Step 48219 / 100000 | TPS 4.51935 | ETA 03:10:57
Time 02:54:58 | Step 48265 / 100000 | TPS 4.59573 | ETA 03:07:37
Time 02:55:08 | Step 48311 / 100000 | TPS 4.59972 | ETA 03:07:17
Time 02:55:18 | Step 48359 / 100000 | TPS 4.61504 | ETA 03:06:29
Time 02:55:28 | Step 48406 / 100000 | TPS 4.69319 | ETA 03:03:13
Time 02:55:39 | Step 48453 / 100000 | TPS 4.52626 | ETA 03:09:48
Time 02:55:49 | Step 48500 / 100000 | TPS 4.68916 | ETA 03:03:02
Time 02:55:59 | Step 48547 / 100000 | TPS 4.51867 | ETA 03:09:46
Time 02:56:09 | Step 48593 / 100000 | TPS 4.59076 | ETA 03:06:37
Time 02:56:19 | Step 48640 / 100000 | TPS 4.68846 | ETA 03:02:34
Time 02:56:29 | Step 48687 / 100000 | TPS 4.5242 | ETA 03:09:01
Time 02:56:39 | Step 48734 / 100000 | TPS 4.69236 | ETA 03:02:05
Time 02:56:50 | Step 48781 / 100000 | TPS 4.52003 | ETA 03:08:51
Time 02:57:00 | Step 48827 / 100000 | TPS 4.59607 | ETA 03:05:34
Time 02:57:10 | Step 48873 / 100000 | TPS 4.59507 | ETA 03:05:26
Time 02:57:20 | Step 48919 / 100000 | TPS 4.5887 | ETA 03:05:31
Time 02:57:30 | Step 48966 / 100000 | TPS 4.68868 | ETA 03:01:24
Time 02:57:40 | Step 49009 / 100000 | TPS 4.19455 | ETA 03:22:36
Time 02:57:50 | Step 49055 / 100000 | TPS 4.59711 | ETA 03:04:41
Time 02:58:00 | Step 49101 / 100000 | TPS 4.59441 | ETA 03:04:38
Time 02:58:10 | Step 49147 / 100000 | TPS 4.59534 | ETA 03:04:26
Time 02:58:20 | Step 49193 / 100000 | TPS 4.59868 | ETA 03:04:08
Time 02:58:30 | Step 49240 / 100000 | TPS 4.69087 | ETA 03:00:21
Time 02:58:41 | Step 49287 / 100000 | TPS 4.52108 | ETA 03:06:57
Time 02:58:51 | Step 49333 / 100000 | TPS 4.5972 | ETA 03:03:41
Time 02:59:01 | Step 49380 / 100000 | TPS 4.69115 | ETA 02:59:50
Time 02:59:11 | Step 49427 / 100000 | TPS 4.52451 | ETA 03:06:17
Time 02:59:21 | Step 49474 / 100000 | TPS 4.69426 | ETA 02:59:23
Time 02:59:31 | Step 49520 / 100000 | TPS 4.59724 | ETA 03:03:00
Time 02:59:41 | Step 49567 / 100000 | TPS 4.53282 | ETA 03:05:26
Time 02:59:51 | Step 49614 / 100000 | TPS 4.69547 | ETA 02:58:50
Time 03:00:02 | Step 49661 / 100000 | TPS 4.52176 | ETA 03:05:32
Time 03:00:12 | Step 49708 / 100000 | TPS 4.69128 | ETA 02:58:40
Time 03:00:22 | Step 49755 / 100000 | TPS 4.52294 | ETA 03:05:08
Time 03:00:32 | Step 49801 / 100000 | TPS 4.5959 | ETA 03:02:02
Time 03:00:43 | Step 49849 / 100000 | TPS 4.6194 | ETA 03:00:56
Time 03:00:53 | Step 49896 / 100000 | TPS 4.69754 | ETA 02:57:46
Time 03:01:03 | Step 49942 / 100000 | TPS 4.59983 | ETA 03:01:22
Time 03:01:13 | Step 49989 / 100000 | TPS 4.51781 | ETA 03:04:29
Time 03:01:23 | Step 50033 / 100000 | TPS 4.28171 | ETA 03:14:29
Time 03:01:33 | Step 50079 / 100000 | TPS 4.59907 | ETA 03:00:54
Time 03:01:43 | Step 50125 / 100000 | TPS 4.59358 | ETA 03:00:57
Time 03:01:53 | Step 50171 / 100000 | TPS 4.59928 | ETA 03:00:34
Time 03:02:03 | Step 50217 / 100000 | TPS 4.59361 | ETA 03:00:37
Time 03:02:13 | Step 50263 / 100000 | TPS 4.59802 | ETA 03:00:17
Time 03:02:23 | Step 50309 / 100000 | TPS 4.596 | ETA 03:00:11
Time 03:02:33 | Step 50355 / 100000 | TPS 4.59332 | ETA 03:00:08
Time 03:02:43 | Step 50401 / 100000 | TPS 4.5874 | ETA 03:00:12
Time 03:02:53 | Step 50448 / 100000 | TPS 4.69231 | ETA 02:56:00
Time 03:03:03 | Step 50494 / 100000 | TPS 4.59467 | ETA 02:59:34
Time 03:03:14 | Step 50541 / 100000 | TPS 4.51635 | ETA 03:02:31
Time 03:03:24 | Step 50588 / 100000 | TPS 4.68715 | ETA 02:55:42
Time 03:03:34 | Step 50634 / 100000 | TPS 4.59144 | ETA 02:59:11
Time 03:03:44 | Step 50680 / 100000 | TPS 4.58755 | ETA 02:59:10
Time 03:03:54 | Step 50726 / 100000 | TPS 4.59284 | ETA 02:58:48
Time 03:04:04 | Step 50773 / 100000 | TPS 4.51925 | ETA 03:01:32
Time 03:04:14 | Step 50820 / 100000 | TPS 4.68819 | ETA 02:54:50
Time 03:04:24 | Step 50866 / 100000 | TPS 4.59564 | ETA 02:58:11
Time 03:04:34 | Step 50912 / 100000 | TPS 4.58854 | ETA 02:58:17
Time 03:04:44 | Step 50958 / 100000 | TPS 4.59407 | ETA 02:57:55
Time 03:04:55 | Step 51001 / 100000 | TPS 4.18283 | ETA 03:15:14
Time 03:05:05 | Step 51047 / 100000 | TPS 4.59988 | ETA 02:57:22
Time 03:05:15 | Step 51093 / 100000 | TPS 4.59955 | ETA 02:57:12
Time 03:05:25 | Step 51139 / 100000 | TPS 4.59971 | ETA 02:57:02
Time 03:05:35 | Step 51185 / 100000 | TPS 4.59889 | ETA 02:56:54
Time 03:05:45 | Step 51231 / 100000 | TPS 4.59781 | ETA 02:56:47
Time 03:05:55 | Step 51277 / 100000 | TPS 4.59672 | ETA 02:56:39
Time 03:06:05 | Step 51323 / 100000 | TPS 4.59151 | ETA 02:56:41
Time 03:06:15 | Step 51370 / 100000 | TPS 4.69959 | ETA 02:52:27
Time 03:06:25 | Step 51417 / 100000 | TPS 4.5199 | ETA 02:59:08
Time 03:06:35 | Step 51463 / 100000 | TPS 4.59757 | ETA 02:55:57
Time 03:06:45 | Step 51509 / 100000 | TPS 4.59139 | ETA 02:56:01
Time 03:06:55 | Step 51555 / 100000 | TPS 4.58486 | ETA 02:56:06
Time 03:07:05 | Step 51601 / 100000 | TPS 4.5888 | ETA 02:55:47
Time 03:07:15 | Step 51648 / 100000 | TPS 4.68993 | ETA 02:51:49
Time 03:07:26 | Step 51695 / 100000 | TPS 4.5181 | ETA 02:58:11
Time 03:07:36 | Step 51742 / 100000 | TPS 4.68736 | ETA 02:51:35
Time 03:07:46 | Step 51788 / 100000 | TPS 4.59755 | ETA 02:54:46
Time 03:07:56 | Step 51834 / 100000 | TPS 4.59231 | ETA 02:54:48
Time 03:08:06 | Step 51880 / 100000 | TPS 4.59336 | ETA 02:54:36
Time 03:08:16 | Step 51926 / 100000 | TPS 4.59318 | ETA 02:54:26
Time 03:08:26 | Step 51973 / 100000 | TPS 4.51925 | ETA 02:57:07
Time 03:08:36 | Step 52017 / 100000 | TPS 4.2801 | ETA 03:06:50
Time 03:08:46 | Step 52064 / 100000 | TPS 4.68654 | ETA 02:50:28
Time 03:08:56 | Step 52110 / 100000 | TPS 4.58818 | ETA 02:53:57
Time 03:09:06 | Step 52156 / 100000 | TPS 4.59678 | ETA 02:53:28
Time 03:09:16 | Step 52201 / 100000 | TPS 4.49944 | ETA 02:57:03
Time 03:09:26 | Step 52248 / 100000 | TPS 4.69404 | ETA 02:49:32
Time 03:09:37 | Step 52295 / 100000 | TPS 4.52145 | ETA 02:55:50
Time 03:09:47 | Step 52341 / 100000 | TPS 4.59106 | ETA 02:53:00
Time 03:09:57 | Step 52387 / 100000 | TPS 4.59538 | ETA 02:52:41
Time 03:10:07 | Step 52433 / 100000 | TPS 4.59103 | ETA 02:52:40
Time 03:10:17 | Step 52479 / 100000 | TPS 4.58826 | ETA 02:52:37
Time 03:10:27 | Step 52525 / 100000 | TPS 4.59315 | ETA 02:52:16
Time 03:10:37 | Step 52572 / 100000 | TPS 4.69442 | ETA 02:48:23
Time 03:10:47 | Step 52618 / 100000 | TPS 4.59637 | ETA 02:51:48
Time 03:10:57 | Step 52664 / 100000 | TPS 4.59459 | ETA 02:51:42
Time 03:11:07 | Step 52710 / 100000 | TPS 4.59541 | ETA 02:51:30
Time 03:11:17 | Step 52756 / 100000 | TPS 4.59232 | ETA 02:51:27
Time 03:11:27 | Step 52801 / 100000 | TPS 4.49045 | ETA 02:55:10
Time 03:11:37 | Step 52847 / 100000 | TPS 4.59542 | ETA 02:51:00
Time 03:11:47 | Step 52893 / 100000 | TPS 4.59793 | ETA 02:50:45
Time 03:11:57 | Step 52939 / 100000 | TPS 4.59448 | ETA 02:50:42
Time 03:12:07 | Step 52985 / 100000 | TPS 4.59243 | ETA 02:50:37
Time 03:12:17 | Step 53029 / 100000 | TPS 4.26635 | ETA 03:03:29
Time 03:12:27 | Step 53075 / 100000 | TPS 4.58586 | ETA 02:50:32
Time 03:12:37 | Step 53121 / 100000 | TPS 4.58486 | ETA 02:50:24
Time 03:12:47 | Step 53167 / 100000 | TPS 4.59794 | ETA 02:49:45
Time 03:12:57 | Step 53213 / 100000 | TPS 4.59529 | ETA 02:49:41
Time 03:13:08 | Step 53259 / 100000 | TPS 4.58815 | ETA 02:49:47
Time 03:13:18 | Step 53305 / 100000 | TPS 4.58854 | ETA 02:49:36
Time 03:13:28 | Step 53351 / 100000 | TPS 4.59237 | ETA 02:49:17
Time 03:13:38 | Step 53397 / 100000 | TPS 4.58764 | ETA 02:49:18
Time 03:13:48 | Step 53443 / 100000 | TPS 4.5906 | ETA 02:49:01
Time 03:13:58 | Step 53489 / 100000 | TPS 4.59618 | ETA 02:48:39
Time 03:14:08 | Step 53536 / 100000 | TPS 4.68704 | ETA 02:45:13
Time 03:14:18 | Step 53582 / 100000 | TPS 4.59035 | ETA 02:48:32
Time 03:14:28 | Step 53628 / 100000 | TPS 4.58834 | ETA 02:48:26
Time 03:14:38 | Step 53674 / 100000 | TPS 4.58773 | ETA 02:48:17
Time 03:14:48 | Step 53720 / 100000 | TPS 4.58844 | ETA 02:48:06
Time 03:14:58 | Step 53767 / 100000 | TPS 4.51914 | ETA 02:50:30
Time 03:15:08 | Step 53813 / 100000 | TPS 4.59611 | ETA 02:47:29
Time 03:15:18 | Step 53859 / 100000 | TPS 4.59095 | ETA 02:47:30
Time 03:15:28 | Step 53905 / 100000 | TPS 4.59155 | ETA 02:47:19
Time 03:15:38 | Step 53951 / 100000 | TPS 4.59065 | ETA 02:47:11
Time 03:15:48 | Step 53997 / 100000 | TPS 4.58923 | ETA 02:47:04
Time 03:15:58 | Step 54041 / 100000 | TPS 4.2849 | ETA 02:58:45
Time 03:16:08 | Step 54087 / 100000 | TPS 4.59874 | ETA 02:46:23
Time 03:16:19 | Step 54133 / 100000 | TPS 4.59605 | ETA 02:46:19
Time 03:16:29 | Step 54179 / 100000 | TPS 4.59226 | ETA 02:46:17
Time 03:16:39 | Step 54225 / 100000 | TPS 4.58833 | ETA 02:46:16
Time 03:16:49 | Step 54271 / 100000 | TPS 4.59183 | ETA 02:45:58
Time 03:16:59 | Step 54317 / 100000 | TPS 4.59201 | ETA 02:45:48
Time 03:17:09 | Step 54363 / 100000 | TPS 4.59458 | ETA 02:45:32
Time 03:17:19 | Step 54409 / 100000 | TPS 4.59269 | ETA 02:45:26
Time 03:17:29 | Step 54455 / 100000 | TPS 4.59223 | ETA 02:45:17
Time 03:17:39 | Step 54501 / 100000 | TPS 4.58951 | ETA 02:45:13
Time 03:17:49 | Step 54547 / 100000 | TPS 4.58916 | ETA 02:45:04
Time 03:17:59 | Step 54593 / 100000 | TPS 4.59106 | ETA 02:44:50
Time 03:18:09 | Step 54639 / 100000 | TPS 4.59028 | ETA 02:44:41
Time 03:18:19 | Step 54685 / 100000 | TPS 4.59851 | ETA 02:44:14
Time 03:18:29 | Step 54731 / 100000 | TPS 4.5955 | ETA 02:44:10
[...]
Time 05:13:08 | Step 86113 / 100000 | TPS 4.55625 | ETA 00:50:47
Time 05:13:19 | Step 86159 / 100000 | TPS 4.56756 | ETA 00:50:30
Time 05:13:29 | Step 86205 / 100000 | TPS 4.57068 | ETA 00:50:18
Time 05:13:39 | Step 86251 / 100000 | TPS 4.55847 | ETA 00:50:16
Time 05:13:49 | Step 86297 / 100000 | TPS 4.55826 | ETA 00:50:06
Time 05:13:59 | Step 86343 / 100000 | TPS 4.55498 | ETA 00:49:58
Time 05:14:09 | Step 86389 / 100000 | TPS 4.5525 | ETA 00:49:49
Time 05:14:19 | Step 86435 / 100000 | TPS 4.56053 | ETA 00:49:34
Time 05:14:29 | Step 86481 / 100000 | TPS 4.55566 | ETA 00:49:27
Time 05:14:39 | Step 86527 / 100000 | TPS 4.561 | ETA 00:49:13
Time 05:14:49 | Step 86573 / 100000 | TPS 4.55801 | ETA 00:49:05
Time 05:14:59 | Step 86619 / 100000 | TPS 4.56165 | ETA 00:48:53
Time 05:15:09 | Step 86665 / 100000 | TPS 4.55515 | ETA 00:48:47
Time 05:15:20 | Step 86711 / 100000 | TPS 4.55367 | ETA 00:48:38
Time 05:15:30 | Step 86757 / 100000 | TPS 4.563 | ETA 00:48:22
Time 05:15:40 | Step 86803 / 100000 | TPS 4.56937 | ETA 00:48:08
Time 05:15:50 | Step 86849 / 100000 | TPS 4.56485 | ETA 00:48:00
Time 05:16:00 | Step 86895 / 100000 | TPS 4.55507 | ETA 00:47:57
Time 05:16:10 | Step 86941 / 100000 | TPS 4.55368 | ETA 00:47:47
Time 05:16:20 | Step 86987 / 100000 | TPS 4.55475 | ETA 00:47:37
Time 05:16:31 | Step 87031 / 100000 | TPS 4.23875 | ETA 00:50:59
Time 05:16:41 | Step 87077 / 100000 | TPS 4.55864 | ETA 00:47:14
Time 05:16:51 | Step 87123 / 100000 | TPS 4.55793 | ETA 00:47:05
Time 05:17:01 | Step 87169 / 100000 | TPS 4.55923 | ETA 00:46:54
Time 05:17:11 | Step 87215 / 100000 | TPS 4.55406 | ETA 00:46:47
Time 05:17:21 | Step 87261 / 100000 | TPS 4.55882 | ETA 00:46:34
Time 05:17:31 | Step 87307 / 100000 | TPS 4.55174 | ETA 00:46:28
Time 05:17:41 | Step 87353 / 100000 | TPS 4.57123 | ETA 00:46:06
Time 05:17:51 | Step 87399 / 100000 | TPS 4.5705 | ETA 00:45:57
Time 05:18:01 | Step 87445 / 100000 | TPS 4.55796 | ETA 00:45:54
Time 05:18:11 | Step 87491 / 100000 | TPS 4.56741 | ETA 00:45:38
Time 05:18:21 | Step 87537 / 100000 | TPS 4.5536 | ETA 00:45:36
Time 05:18:32 | Step 87583 / 100000 | TPS 4.56683 | ETA 00:45:18
Time 05:18:42 | Step 87629 / 100000 | TPS 4.56252 | ETA 00:45:11
Time 05:18:52 | Step 87675 / 100000 | TPS 4.5674 | ETA 00:44:58
Time 05:19:02 | Step 87721 / 100000 | TPS 4.57099 | ETA 00:44:46
Time 05:19:12 | Step 87767 / 100000 | TPS 4.56703 | ETA 00:44:38
Time 05:19:22 | Step 87813 / 100000 | TPS 4.55938 | ETA 00:44:32
Time 05:19:32 | Step 87859 / 100000 | TPS 4.56235 | ETA 00:44:21
Time 05:19:42 | Step 87905 / 100000 | TPS 4.56135 | ETA 00:44:11
Time 05:19:52 | Step 87951 / 100000 | TPS 4.57457 | ETA 00:43:53
Time 05:20:02 | Step 87997 / 100000 | TPS 4.55877 | ETA 00:43:52
Time 05:20:13 | Step 88041 / 100000 | TPS 4.24351 | ETA 00:46:58
Time 05:20:23 | Step 88087 / 100000 | TPS 4.55745 | ETA 00:43:33
Time 05:20:33 | Step 88133 / 100000 | TPS 4.55549 | ETA 00:43:24
Time 05:20:43 | Step 88179 / 100000 | TPS 4.55838 | ETA 00:43:13
Time 05:20:53 | Step 88225 / 100000 | TPS 4.55545 | ETA 00:43:04
Time 05:21:03 | Step 88271 / 100000 | TPS 4.56703 | ETA 00:42:48
Time 05:21:13 | Step 88317 / 100000 | TPS 4.56338 | ETA 00:42:40
Time 05:21:23 | Step 88363 / 100000 | TPS 4.55686 | ETA 00:42:33
Time 05:21:33 | Step 88409 / 100000 | TPS 4.54893 | ETA 00:42:28
Time 05:21:43 | Step 88455 / 100000 | TPS 4.54853 | ETA 00:42:18
Time 05:21:54 | Step 88501 / 100000 | TPS 4.54322 | ETA 00:42:11
Time 05:22:04 | Step 88547 / 100000 | TPS 4.55787 | ETA 00:41:52
Time 05:22:14 | Step 88593 / 100000 | TPS 4.55372 | ETA 00:41:44
Time 05:22:24 | Step 88639 / 100000 | TPS 4.55442 | ETA 00:41:34
Time 05:22:34 | Step 88685 / 100000 | TPS 4.55074 | ETA 00:41:26
Time 05:22:44 | Step 88731 / 100000 | TPS 4.54561 | ETA 00:41:19
Time 05:22:54 | Step 88777 / 100000 | TPS 4.54833 | ETA 00:41:07
Time 05:23:04 | Step 88823 / 100000 | TPS 4.54525 | ETA 00:40:59
Time 05:23:14 | Step 88869 / 100000 | TPS 4.55434 | ETA 00:40:44
Time 05:23:25 | Step 88915 / 100000 | TPS 4.55519 | ETA 00:40:33
Time 05:23:35 | Step 88961 / 100000 | TPS 4.55566 | ETA 00:40:23
Time 05:23:45 | Step 89005 / 100000 | TPS 4.23278 | ETA 00:43:17
Time 05:23:55 | Step 89051 / 100000 | TPS 4.5462 | ETA 00:40:08
Time 05:24:05 | Step 89097 / 100000 | TPS 4.54556 | ETA 00:39:58
Time 05:24:15 | Step 89143 / 100000 | TPS 4.55752 | ETA 00:39:42
Time 05:24:25 | Step 89189 / 100000 | TPS 4.56305 | ETA 00:39:29
Time 05:24:36 | Step 89235 / 100000 | TPS 4.55946 | ETA 00:39:21
Time 05:24:46 | Step 89281 / 100000 | TPS 4.56156 | ETA 00:39:09
Time 05:24:56 | Step 89327 / 100000 | TPS 4.55881 | ETA 00:39:01
Time 05:25:06 | Step 89373 / 100000 | TPS 4.55378 | ETA 00:38:53
Time 05:25:16 | Step 89419 / 100000 | TPS 4.55707 | ETA 00:38:41
Time 05:25:26 | Step 89465 / 100000 | TPS 4.56588 | ETA 00:38:27
Time 05:25:36 | Step 89511 / 100000 | TPS 4.56525 | ETA 00:38:17
Time 05:25:46 | Step 89557 / 100000 | TPS 4.55345 | ETA 00:38:13
Time 05:25:56 | Step 89603 / 100000 | TPS 4.55837 | ETA 00:38:00
Time 05:26:06 | Step 89649 / 100000 | TPS 4.55704 | ETA 00:37:51
Time 05:26:16 | Step 89695 / 100000 | TPS 4.55232 | ETA 00:37:43
Time 05:26:27 | Step 89741 / 100000 | TPS 4.55198 | ETA 00:37:33
Time 05:26:37 | Step 89787 / 100000 | TPS 4.5626 | ETA 00:37:18
Time 05:26:47 | Step 89833 / 100000 | TPS 4.55163 | ETA 00:37:13
Time 05:26:57 | Step 89879 / 100000 | TPS 4.54584 | ETA 00:37:06
Time 05:27:07 | Step 89925 / 100000 | TPS 4.54825 | ETA 00:36:55
Time 05:27:17 | Step 89971 / 100000 | TPS 4.54939 | ETA 00:36:44
Time 05:27:27 | Step 90015 / 100000 | TPS 4.23353 | ETA 00:39:18
Time 05:27:38 | Step 90061 / 100000 | TPS 4.5539 | ETA 00:36:22
Time 05:27:48 | Step 90107 / 100000 | TPS 4.54612 | ETA 00:36:16
Time 05:27:58 | Step 90153 / 100000 | TPS 4.55356 | ETA 00:36:02
Time 05:28:08 | Step 90199 / 100000 | TPS 4.54848 | ETA 00:35:54
Time 05:28:18 | Step 90245 / 100000 | TPS 4.5376 | ETA 00:35:49
Time 05:28:28 | Step 90291 / 100000 | TPS 4.54692 | ETA 00:35:35
Time 05:28:38 | Step 90337 / 100000 | TPS 4.55341 | ETA 00:35:22
Time 05:28:48 | Step 90383 / 100000 | TPS 4.5575 | ETA 00:35:10
Time 05:28:58 | Step 90429 / 100000 | TPS 4.5556 | ETA 00:35:00
Time 05:29:09 | Step 90475 / 100000 | TPS 4.54994 | ETA 00:34:53
Time 05:29:19 | Step 90521 / 100000 | TPS 4.55617 | ETA 00:34:40
Time 05:29:29 | Step 90567 / 100000 | TPS 4.55222 | ETA 00:34:32
Time 05:29:39 | Step 90613 / 100000 | TPS 4.55388 | ETA 00:34:21
Time 05:29:49 | Step 90659 / 100000 | TPS 4.56703 | ETA 00:34:05
Time 05:29:59 | Step 90705 / 100000 | TPS 4.56952 | ETA 00:33:54
Time 05:30:09 | Step 90751 / 100000 | TPS 4.5604 | ETA 00:33:48
Time 05:30:19 | Step 90797 / 100000 | TPS 4.55507 | ETA 00:33:40
Time 05:30:29 | Step 90843 / 100000 | TPS 4.54939 | ETA 00:33:32
Time 05:30:39 | Step 90889 / 100000 | TPS 4.5544 | ETA 00:33:20
Time 05:30:49 | Step 90935 / 100000 | TPS 4.56066 | ETA 00:33:07
Time 05:31:00 | Step 90981 / 100000 | TPS 4.56294 | ETA 00:32:56
Time 05:31:10 | Step 91025 / 100000 | TPS 4.23801 | ETA 00:35:17
Time 05:31:20 | Step 91071 / 100000 | TPS 4.54995 | ETA 00:32:42
Time 05:31:30 | Step 91117 / 100000 | TPS 4.55515 | ETA 00:32:30
Time 05:31:40 | Step 91163 / 100000 | TPS 4.54664 | ETA 00:32:23
Time 05:31:50 | Step 91209 / 100000 | TPS 4.54143 | ETA 00:32:15
Time 05:32:00 | Step 91255 / 100000 | TPS 4.56055 | ETA 00:31:57
Time 05:32:11 | Step 91301 / 100000 | TPS 4.5529 | ETA 00:31:50
Time 05:32:21 | Step 91347 / 100000 | TPS 4.54974 | ETA 00:31:41
Time 05:32:31 | Step 91393 / 100000 | TPS 4.54394 | ETA 00:31:34
Time 05:32:41 | Step 91439 / 100000 | TPS 4.53827 | ETA 00:31:26
Time 05:32:51 | Step 91485 / 100000 | TPS 4.54001 | ETA 00:31:15
Time 05:33:01 | Step 91531 / 100000 | TPS 4.54302 | ETA 00:31:04
Time 05:33:11 | Step 91577 / 100000 | TPS 4.54771 | ETA 00:30:52
Time 05:33:21 | Step 91623 / 100000 | TPS 4.54633 | ETA 00:30:42
Time 05:33:32 | Step 91669 / 100000 | TPS 4.54146 | ETA 00:30:34
Time 05:33:42 | Step 91715 / 100000 | TPS 4.53743 | ETA 00:30:25
Time 05:33:52 | Step 91761 / 100000 | TPS 4.54426 | ETA 00:30:13
Time 05:34:02 | Step 91807 / 100000 | TPS 4.53723 | ETA 00:30:05
Time 05:34:12 | Step 91853 / 100000 | TPS 4.55331 | ETA 00:29:49
Time 05:34:22 | Step 91899 / 100000 | TPS 4.55819 | ETA 00:29:37
Time 05:34:32 | Step 91945 / 100000 | TPS 4.55587 | ETA 00:29:28
Time 05:34:42 | Step 91991 / 100000 | TPS 4.55788 | ETA 00:29:17
Time 05:34:52 | Step 92034 / 100000 | TPS 4.29794 | ETA 00:30:53
Time 05:35:02 | Step 92079 / 100000 | TPS 4.46569 | ETA 00:29:33
Time 05:35:13 | Step 92125 / 100000 | TPS 4.55182 | ETA 00:28:50
Time 05:35:23 | Step 92171 / 100000 | TPS 4.55829 | ETA 00:28:37
Time 05:35:33 | Step 92217 / 100000 | TPS 4.55796 | ETA 00:28:27
Time 05:35:43 | Step 92263 / 100000 | TPS 4.55879 | ETA 00:28:17
Time 05:35:53 | Step 92309 / 100000 | TPS 4.55169 | ETA 00:28:09
Time 05:36:03 | Step 92355 / 100000 | TPS 4.55471 | ETA 00:27:58
Time 05:36:13 | Step 92401 / 100000 | TPS 4.55121 | ETA 00:27:49
Time 05:36:23 | Step 92447 / 100000 | TPS 4.55573 | ETA 00:27:37
Time 05:36:33 | Step 92493 / 100000 | TPS 4.55813 | ETA 00:27:26
Time 05:36:43 | Step 92539 / 100000 | TPS 4.55079 | ETA 00:27:19
Time 05:36:54 | Step 92585 / 100000 | TPS 4.54632 | ETA 00:27:10
Time 05:37:04 | Step 92631 / 100000 | TPS 4.54601 | ETA 00:27:00
Time 05:37:14 | Step 92677 / 100000 | TPS 4.53898 | ETA 00:26:53
Time 05:37:24 | Step 92723 / 100000 | TPS 4.53958 | ETA 00:26:43
Time 05:37:34 | Step 92769 / 100000 | TPS 4.54435 | ETA 00:26:31
Time 05:37:44 | Step 92815 / 100000 | TPS 4.55174 | ETA 00:26:18
Time 05:37:54 | Step 92861 / 100000 | TPS 4.54894 | ETA 00:26:09
Time 05:38:04 | Step 92907 / 100000 | TPS 4.55225 | ETA 00:25:58
Time 05:38:15 | Step 92953 / 100000 | TPS 4.54519 | ETA 00:25:50
Time 05:38:25 | Step 92999 / 100000 | TPS 4.54387 | ETA 00:25:40
Time 05:38:35 | Step 93043 / 100000 | TPS 4.23255 | ETA 00:27:23
Time 05:38:45 | Step 93089 / 100000 | TPS 4.55024 | ETA 00:25:18
Time 05:38:55 | Step 93135 / 100000 | TPS 4.55065 | ETA 00:25:08
Time 05:39:05 | Step 93181 / 100000 | TPS 4.54719 | ETA 00:24:59
Time 05:39:15 | Step 93227 / 100000 | TPS 4.55167 | ETA 00:24:48
Time 05:39:26 | Step 93273 / 100000 | TPS 4.54682 | ETA 00:24:39
Time 05:39:36 | Step 93319 / 100000 | TPS 4.54102 | ETA 00:24:31
Time 05:39:46 | Step 93365 / 100000 | TPS 4.55181 | ETA 00:24:17
Time 05:39:56 | Step 93411 / 100000 | TPS 4.55569 | ETA 00:24:06
Time 05:40:06 | Step 93457 / 100000 | TPS 4.55437 | ETA 00:23:56
Time 05:40:16 | Step 93503 / 100000 | TPS 4.55465 | ETA 00:23:46
Time 05:40:26 | Step 93549 / 100000 | TPS 4.55332 | ETA 00:23:36
Time 05:40:36 | Step 93595 / 100000 | TPS 4.5562 | ETA 00:23:25
Time 05:40:46 | Step 93641 / 100000 | TPS 4.55939 | ETA 00:23:14
Time 05:40:56 | Step 93687 / 100000 | TPS 4.56421 | ETA 00:23:03
Time 05:41:07 | Step 93733 / 100000 | TPS 4.55918 | ETA 00:22:54
Time 05:41:17 | Step 93779 / 100000 | TPS 4.55481 | ETA 00:22:45
Time 05:41:27 | Step 93825 / 100000 | TPS 4.55422 | ETA 00:22:35
Time 05:41:37 | Step 93871 / 100000 | TPS 4.55506 | ETA 00:22:25
Time 05:41:47 | Step 93917 / 100000 | TPS 4.55362 | ETA 00:22:15
Time 05:41:57 | Step 93963 / 100000 | TPS 4.55356 | ETA 00:22:05
Time 05:42:07 | Step 94007 / 100000 | TPS 4.23831 | ETA 00:23:34
Time 05:42:18 | Step 94053 / 100000 | TPS 4.55328 | ETA 00:21:46
Time 05:42:28 | Step 94099 / 100000 | TPS 4.55399 | ETA 00:21:35
Time 05:42:38 | Step 94145 / 100000 | TPS 4.54903 | ETA 00:21:27
Time 05:42:48 | Step 94191 / 100000 | TPS 4.54718 | ETA 00:21:17
Time 05:42:58 | Step 94237 / 100000 | TPS 4.553 | ETA 00:21:05
Time 05:43:08 | Step 94283 / 100000 | TPS 4.55844 | ETA 00:20:54
Time 05:43:18 | Step 94329 / 100000 | TPS 4.56088 | ETA 00:20:43
Time 05:43:28 | Step 94375 / 100000 | TPS 4.55172 | ETA 00:20:35
Time 05:43:38 | Step 94421 / 100000 | TPS 4.54504 | ETA 00:20:27
Time 05:43:49 | Step 94467 / 100000 | TPS 4.54735 | ETA 00:20:16
Time 05:43:59 | Step 94513 / 100000 | TPS 4.54715 | ETA 00:20:06
Time 05:44:09 | Step 94559 / 100000 | TPS 4.55998 | ETA 00:19:53
Time 05:44:19 | Step 94605 / 100000 | TPS 4.55584 | ETA 00:19:44
Time 05:44:29 | Step 94651 / 100000 | TPS 4.55042 | ETA 00:19:35
Time 05:44:39 | Step 94697 / 100000 | TPS 4.55547 | ETA 00:19:24
Time 05:44:49 | Step 94743 / 100000 | TPS 4.54944 | ETA 00:19:15
Time 05:44:59 | Step 94789 / 100000 | TPS 4.55159 | ETA 00:19:04
Time 05:45:09 | Step 94835 / 100000 | TPS 4.55664 | ETA 00:18:53
Time 05:45:19 | Step 94881 / 100000 | TPS 4.56092 | ETA 00:18:42
Time 05:45:30 | Step 94927 / 100000 | TPS 4.56028 | ETA 00:18:32
Time 05:45:40 | Step 94973 / 100000 | TPS 4.5563 | ETA 00:18:23
Time 05:45:50 | Step 95017 / 100000 | TPS 4.23611 | ETA 00:19:36
Time 05:46:00 | Step 95063 / 100000 | TPS 4.55973 | ETA 00:18:02
Time 05:46:10 | Step 95109 / 100000 | TPS 4.55011 | ETA 00:17:54
Time 05:46:20 | Step 95155 / 100000 | TPS 4.56385 | ETA 00:17:41
Time 05:46:30 | Step 95201 / 100000 | TPS 4.56193 | ETA 00:17:31
Time 05:46:40 | Step 95247 / 100000 | TPS 4.55973 | ETA 00:17:22
Time 05:46:51 | Step 95293 / 100000 | TPS 4.5587 | ETA 00:17:12
Time 05:47:01 | Step 95339 / 100000 | TPS 4.54799 | ETA 00:17:04
Time 05:47:11 | Step 95385 / 100000 | TPS 4.55127 | ETA 00:16:54
Time 05:47:21 | Step 95431 / 100000 | TPS 4.55563 | ETA 00:16:42
Time 05:47:31 | Step 95477 / 100000 | TPS 4.55787 | ETA 00:16:32
Time 05:47:41 | Step 95523 / 100000 | TPS 4.55203 | ETA 00:16:23
Time 05:47:51 | Step 95569 / 100000 | TPS 4.55851 | ETA 00:16:12
Time 05:48:01 | Step 95615 / 100000 | TPS 4.55012 | ETA 00:16:03
Time 05:48:11 | Step 95661 / 100000 | TPS 4.54204 | ETA 00:15:55
Time 05:48:21 | Step 95707 / 100000 | TPS 4.54783 | ETA 00:15:43
Time 05:48:32 | Step 95753 / 100000 | TPS 4.55881 | ETA 00:15:31
Time 05:48:42 | Step 95799 / 100000 | TPS 4.55062 | ETA 00:15:23
Time 05:48:52 | Step 95845 / 100000 | TPS 4.54626 | ETA 00:15:13
Time 05:49:02 | Step 95891 / 100000 | TPS 4.54679 | ETA 00:15:03
Time 05:49:12 | Step 95937 / 100000 | TPS 4.546 | ETA 00:14:53
Time 05:49:22 | Step 95983 / 100000 | TPS 4.54992 | ETA 00:14:42
Time 05:49:33 | Step 96027 / 100000 | TPS 4.23489 | ETA 00:15:38
Time 05:49:43 | Step 96073 / 100000 | TPS 4.55338 | ETA 00:14:22
Time 05:49:53 | Step 96119 / 100000 | TPS 4.55018 | ETA 00:14:12
Time 05:50:03 | Step 96165 / 100000 | TPS 4.54478 | ETA 00:14:03
Time 05:50:13 | Step 96211 / 100000 | TPS 4.55029 | ETA 00:13:52
Time 05:50:23 | Step 96257 / 100000 | TPS 4.54284 | ETA 00:13:43
Time 05:50:33 | Step 96303 / 100000 | TPS 4.54351 | ETA 00:13:33
Time 05:50:43 | Step 96349 / 100000 | TPS 4.55861 | ETA 00:13:20
Time 05:50:53 | Step 96395 / 100000 | TPS 4.54914 | ETA 00:13:12
Time 05:51:04 | Step 96441 / 100000 | TPS 4.55945 | ETA 00:13:00
Time 05:51:14 | Step 96487 / 100000 | TPS 4.54298 | ETA 00:12:53
Time 05:51:24 | Step 96533 / 100000 | TPS 4.55417 | ETA 00:12:41
Time 05:51:34 | Step 96579 / 100000 | TPS 4.54643 | ETA 00:12:32
Time 05:51:44 | Step 96625 / 100000 | TPS 4.54768 | ETA 00:12:22
Time 05:51:54 | Step 96671 / 100000 | TPS 4.55664 | ETA 00:12:10
Time 05:52:04 | Step 96717 / 100000 | TPS 4.54534 | ETA 00:12:02
Time 05:52:14 | Step 96763 / 100000 | TPS 4.54999 | ETA 00:11:51
Time 05:52:24 | Step 96809 / 100000 | TPS 4.54708 | ETA 00:11:41
Time 05:52:35 | Step 96855 / 100000 | TPS 4.55142 | ETA 00:11:30
Time 05:52:45 | Step 96901 / 100000 | TPS 4.5332 | ETA 00:11:23
Time 05:52:55 | Step 96947 / 100000 | TPS 4.56526 | ETA 00:11:08
Time 05:53:05 | Step 96993 / 100000 | TPS 4.55513 | ETA 00:11:00
Time 05:53:15 | Step 97037 / 100000 | TPS 4.2304 | ETA 00:11:40
Time 05:53:25 | Step 97083 / 100000 | TPS 4.54689 | ETA 00:10:41
Time 05:53:35 | Step 97129 / 100000 | TPS 4.54898 | ETA 00:10:31
Time 05:53:46 | Step 97175 / 100000 | TPS 4.54271 | ETA 00:10:21
Time 05:53:56 | Step 97221 / 100000 | TPS 4.54579 | ETA 00:10:11
Time 05:54:06 | Step 97267 / 100000 | TPS 4.54894 | ETA 00:10:00
Time 05:54:16 | Step 97313 / 100000 | TPS 4.55294 | ETA 00:09:50
Time 05:54:26 | Step 97359 / 100000 | TPS 4.55026 | ETA 00:09:40
Time 05:54:36 | Step 97405 / 100000 | TPS 4.55354 | ETA 00:09:29
Time 05:54:46 | Step 97451 / 100000 | TPS 4.54286 | ETA 00:09:21
Time 05:54:56 | Step 97497 / 100000 | TPS 4.55107 | ETA 00:09:09
Time 05:55:06 | Step 97543 / 100000 | TPS 4.55955 | ETA 00:08:58
Time 05:55:17 | Step 97589 / 100000 | TPS 4.55079 | ETA 00:08:49
Time 05:55:27 | Step 97635 / 100000 | TPS 4.55285 | ETA 00:08:39
Time 05:55:37 | Step 97681 / 100000 | TPS 4.54995 | ETA 00:08:29
Time 05:55:47 | Step 97727 / 100000 | TPS 4.55258 | ETA 00:08:19
Time 05:55:57 | Step 97773 / 100000 | TPS 4.55306 | ETA 00:08:09
Time 05:56:07 | Step 97819 / 100000 | TPS 4.54535 | ETA 00:07:59
Time 05:56:17 | Step 97865 / 100000 | TPS 4.56014 | ETA 00:07:48
Time 05:56:27 | Step 97911 / 100000 | TPS 4.55788 | ETA 00:07:38
Time 05:56:37 | Step 97957 / 100000 | TPS 4.54459 | ETA 00:07:29
Time 05:56:48 | Step 98001 / 100000 | TPS 4.23942 | ETA 00:07:51
Time 05:56:58 | Step 98047 / 100000 | TPS 4.54869 | ETA 00:07:09
Time 05:57:08 | Step 98093 / 100000 | TPS 4.5494 | ETA 00:06:59
Time 05:57:18 | Step 98139 / 100000 | TPS 4.55229 | ETA 00:06:48
Time 05:57:28 | Step 98185 / 100000 | TPS 4.55527 | ETA 00:06:38
Time 05:57:38 | Step 98231 / 100000 | TPS 4.5492 | ETA 00:06:28
Time 05:57:48 | Step 98277 / 100000 | TPS 4.55403 | ETA 00:06:18
Time 05:57:59 | Step 98323 / 100000 | TPS 4.54777 | ETA 00:06:08
Time 05:58:09 | Step 98369 / 100000 | TPS 4.54974 | ETA 00:05:58
Time 05:58:19 | Step 98415 / 100000 | TPS 4.53962 | ETA 00:05:49
Time 05:58:29 | Step 98461 / 100000 | TPS 4.55408 | ETA 00:05:37
Time 05:58:39 | Step 98507 / 100000 | TPS 4.54648 | ETA 00:05:28
Time 05:58:49 | Step 98553 / 100000 | TPS 4.54933 | ETA 00:05:18
Time 05:58:59 | Step 98599 / 100000 | TPS 4.54033 | ETA 00:05:08
Time 05:59:09 | Step 98645 / 100000 | TPS 4.54946 | ETA 00:04:57
Time 05:59:20 | Step 98691 / 100000 | TPS 4.54212 | ETA 00:04:48
Time 05:59:30 | Step 98737 / 100000 | TPS 4.54815 | ETA 00:04:37
Time 05:59:40 | Step 98783 / 100000 | TPS 4.55545 | ETA 00:04:27
Time 05:59:50 | Step 98829 / 100000 | TPS 4.54794 | ETA 00:04:17
Time 06:00:00 | Step 98875 / 100000 | TPS 4.54764 | ETA 00:04:07
Time 06:00:10 | Step 98921 / 100000 | TPS 4.54988 | ETA 00:03:57
Time 06:00:20 | Step 98967 / 100000 | TPS 4.54647 | ETA 00:03:47
Time 06:00:30 | Step 99010 / 100000 | TPS 4.29841 | ETA 00:03:50
Time 06:00:40 | Step 99055 / 100000 | TPS 4.46778 | ETA 00:03:31
Time 06:00:50 | Step 99101 / 100000 | TPS 4.54573 | ETA 00:03:17
Time 06:01:00 | Step 99147 / 100000 | TPS 4.54638 | ETA 00:03:07
Time 06:01:11 | Step 99193 / 100000 | TPS 4.54316 | ETA 00:02:57
Time 06:01:21 | Step 99239 / 100000 | TPS 4.54553 | ETA 00:02:47
Time 06:01:31 | Step 99285 / 100000 | TPS 4.54299 | ETA 00:02:37
Time 06:01:41 | Step 99331 / 100000 | TPS 4.54986 | ETA 00:02:27
Time 06:01:51 | Step 99377 / 100000 | TPS 4.55324 | ETA 00:02:16
Time 06:02:01 | Step 99423 / 100000 | TPS 4.55042 | ETA 00:02:06
Time 06:02:11 | Step 99469 / 100000 | TPS 4.54514 | ETA 00:01:56
Time 06:02:21 | Step 99515 / 100000 | TPS 4.55262 | ETA 00:01:46
Time 06:02:32 | Step 99561 / 100000 | TPS 4.55304 | ETA 00:01:36
Time 06:02:42 | Step 99607 / 100000 | TPS 4.53848 | ETA 00:01:26
Time 06:02:52 | Step 99653 / 100000 | TPS 4.56083 | ETA 00:01:16
Time 06:03:02 | Step 99699 / 100000 | TPS 4.55268 | ETA 00:01:06
Time 06:03:12 | Step 99745 / 100000 | TPS 4.54657 | ETA 00:00:56
Time 06:03:22 | Step 99791 / 100000 | TPS 4.55535 | ETA 00:00:45
Time 06:03:32 | Step 99837 / 100000 | TPS 4.54647 | ETA 00:00:35
Time 06:03:42 | Step 99883 / 100000 | TPS 4.53807 | ETA 00:00:25
Time 06:03:52 | Step 99929 / 100000 | TPS 4.54543 | ETA 00:00:15
Time 06:04:03 | Step 99975 / 100000 | TPS 4.55226 | ETA 00:00:05
Time 06:04:08 | Step 100000 / 100000 | TPS 4.71502 | ETA 00:00:00
Average TPS: 4.57722
---------
-- Neighborlist stats:
49639 normal updates / 334 forced updates / 0 dangerous updates
n_neigh_min: 26 / n_neigh_max: 231 / n_neigh_avg: 171.671
shortest rebuild period: 1
** run complete **
