[33mWARNING: Skipping user bind, non existent bind point (file) in container: '/usr/bin/nvidia-smi'
[0m[33mWARNING: Skipping user bind, non existent bind point (file) in container: '/usr/bin/nvidia-debugdump'
[0m[33mWARNING: Skipping user bind, non existent bind point (file) in container: '/usr/bin/nvidia-persistenced'
[0m[33mWARNING: Skipping user bind, non existent bind point (file) in container: '/usr/bin/nvidia-cuda-mps-control'
[0m[33mWARNING: Skipping user bind, non existent bind point (file) in container: '/usr/bin/nvidia-cuda-mps-server'
[0m**ERROR**: nlist.tree(): Particle 36183 is out of bounds (x: -30282.7, y: 5852.03, z: 17383.8, fx: -43.6172, fy: 9.02548, fz:25.8254)
HOOMD-blue 2.3.5 CUDA (8.0) DOUBLE HPMC_MIXED TBB SSE SSE2 
Compiled: 10/08/18
Copyright 2009-2018 The Regents of the University of Michigan.
-----
You are using HOOMD-blue. Please cite the following:
* J A Anderson, C D Lorenz, and A Travesset. "General purpose molecular dynamics
  simulations fully implemented on graphics processing units", Journal of
  Computational Physics 227 (2008) 5342--5359
* J Glaser, T D Nguyen, J A Anderson, P Liu, F Spiga, J A Millan, D C Morse, and
  S C Glotzer. "Strong scaling of general-purpose molecular dynamics simulations
  on GPUs", Computer Physics Communications 192 (2015) 97--107
-----
notice(2): This system is not compute exclusive, using local rank to select GPUs
HOOMD-blue is running on the following GPU(s):
 [0]            Tesla K20m  13 SM_3.5 @ 0.706 GHz, 4743 MiB DRAM
Equilibrium_T_5_8.py:030  |  system = hoomd.init.read_snapshot(snap)
notice(2): Group "all" created containing 64256 particles
Equilibrium_T_5_8.py:034  |  rigid = hoomd.md.constrain.rigid();
notice(2): constrain.rigid(): Creating 64000 rigid bodies (adding 512000 particles)
Equilibrium_T_5_8.py:046  |  nl = hoomd.md.nlist.tree();
-----
You are using tree neighbor lists. Please cite the following:
* M P Howard, J A Anderson, A Nikoubashman, S C Glotzer, and A Z
  Panagiotopoulos. "Efficient neighbor list calculation for molecular simulation
  of colloidal systems using graphics processing units", Computer Physics
  Communications 203 (2016) 45--52
-----
Equilibrium_T_5_8.py:048  |  lj = hoomd.md.pair.lj(r_cut = 3.5, nlist = nl)
Equilibrium_T_5_8.py:049  |  lj.set_params(mode = 'shift')
Equilibrium_T_5_8.py:053  |  lj.pair_coeff.set('NP','NP', epsilon = 1.0, sigma = 5.0);
Equilibrium_T_5_8.py:054  |  lj.pair_coeff.set('M' ,'M' , epsilon = 1.0, sigma = 1.0);
Equilibrium_T_5_8.py:055  |  lj.pair_coeff.set('A' ,'A' , epsilon = 1.0, sigma = 1.0);
Equilibrium_T_5_8.py:056  |  lj.pair_coeff.set('M' ,'A' , epsilon = 1.0, sigma = 1.0);
Equilibrium_T_5_8.py:057  |  lj.pair_coeff.set('NP','M' , epsilon = 1.0, sigma = 3.0);
Equilibrium_T_5_8.py:058  |  lj.pair_coeff.set('NP','A' , epsilon = 1.0, sigma = 3.0);
Equilibrium_T_5_8.py:062  |  hoomd.md.integrate.mode_standard(dt = 0.005);
Equilibrium_T_5_8.py:066  |  nanoparticles = hoomd.group.type(name = 'Nano_Particles', type = 'NP');
notice(2): Group "Nano_Particles" created containing 256 particles
Equilibrium_T_5_8.py:067  |  mesogens = hoomd.group.rigid_center();
notice(2): Group "rigid_center" created containing 64000 particles
notice(2): Group "NP_Mes" created containing 64256 particles
Equilibrium_T_5_8.py:074  |  npt = hoomd.md.integrate.npt(group = groupNP_mes, kT = t_max, tau = 15.0, tauP = 15.0, P = p_max);
Equilibrium_T_5_8.py:082  |  log = hoomd.analyze.log(filename = log_file,
                         quantities = ['num_particles',
                                     'ndof',
                                     'translational_ndof',
                                     'rotational_ndof',
                                     'potential_energy',
                                     'kinetic_energy',
                                     'translational_kinetic_energy',
                                     'rotational_kinetic_energy',
                                     'temperature',
                                     'pressure',
                                      'volume'],
                         period = 1e3,
                         overwrite = True);
Equilibrium_T_5_8.py:098  |                 group = hoomd.group.all(),
Equilibrium_T_5_8.py:096  |  gsd = hoomd.dump.gsd(gsd_file,
               period = 1e3,
               group = hoomd.group.all(),
               overwrite = True); 
Equilibrium_T_5_8.py:100  |  meso_gsd = hoomd.dump.gsd(meso_gsd_file,
               period = 1e3,
               group = mesogens,
               overwrite = True); 
Equilibrium_T_5_8.py:109  |  hoomd.run(steps)
notice(2): -- Neighborlist exclusion statistics -- :
notice(2): Particles with 0 exclusions             : 576256
notice(2): Neighbors included by diameter          : no
notice(2): Neighbors excluded when in the same body: yes
** starting run **
Time 00:00:11 | Step 27 / 100000 | TPS 2.69661 | ETA 10:17:53
Time 00:00:21 | Step 82 / 100000 | TPS 5.27907 | ETA 05:15:27
Time 00:00:31 | Step 133 / 100000 | TPS 4.92359 | ETA 05:38:03
Time 00:00:42 | Step 184 / 100000 | TPS 4.92752 | ETA 05:37:36
Time 00:00:52 | Step 220 / 100000 | TPS 3.59443 | ETA 07:42:39
Time 00:01:02 | Step 255 / 100000 | TPS 3.43072 | ETA 08:04:34
Time 00:01:12 | Step 293 / 100000 | TPS 3.72356 | ETA 07:26:17
Time 00:01:22 | Step 337 / 100000 | TPS 4.23321 | ETA 06:32:23
Time 00:01:33 | Step 383 / 100000 | TPS 4.59201 | ETA 06:01:33
Time 00:01:43 | Step 428 / 100000 | TPS 4.48665 | ETA 06:09:52
Time 00:01:53 | Step 475 / 100000 | TPS 4.58141 | ETA 06:02:03
Time 00:02:03 | Step 523 / 100000 | TPS 4.67455 | ETA 05:54:40
Time 00:02:13 | Step 571 / 100000 | TPS 4.65373 | ETA 05:56:05
Time 00:02:23 | Step 619 / 100000 | TPS 4.7442 | ETA 05:49:07
Time 00:02:34 | Step 667 / 100000 | TPS 4.66701 | ETA 05:54:44
Time 00:02:44 | Step 713 / 100000 | TPS 4.45904 | ETA 06:11:06
Time 00:02:54 | Step 759 / 100000 | TPS 4.51531 | ETA 06:06:18
Time 00:03:04 | Step 805 / 100000 | TPS 4.59927 | ETA 05:59:27
Time 00:03:15 | Step 853 / 100000 | TPS 4.69024 | ETA 05:52:19
Time 00:03:25 | Step 901 / 100000 | TPS 4.69269 | ETA 05:51:57
Time 00:03:35 | Step 949 / 100000 | TPS 4.77844 | ETA 05:45:28
Time 00:03:45 | Step 999 / 100000 | TPS 4.95519 | ETA 05:32:59
Time 00:03:55 | Step 1047 / 100000 | TPS 4.69349 | ETA 05:51:23
Time 00:04:05 | Step 1099 / 100000 | TPS 5.04265 | ETA 05:26:52
Time 00:04:16 | Step 1151 / 100000 | TPS 5.0492 | ETA 05:26:17
Time 00:04:26 | Step 1203 / 100000 | TPS 5.04547 | ETA 05:26:21
Time 00:04:36 | Step 1255 / 100000 | TPS 5.07257 | ETA 05:24:26
Time 00:04:47 | Step 1307 / 100000 | TPS 5.07872 | ETA 05:23:52
Time 00:04:57 | Step 1359 / 100000 | TPS 5.0697 | ETA 05:24:16
Time 00:05:07 | Step 1411 / 100000 | TPS 5.07872 | ETA 05:23:32
Time 00:05:17 | Step 1463 / 100000 | TPS 5.09082 | ETA 05:22:35
Time 00:05:27 | Step 1515 / 100000 | TPS 5.09075 | ETA 05:22:25
Time 00:05:38 | Step 1567 / 100000 | TPS 5.1141 | ETA 05:20:47
Time 00:05:48 | Step 1619 / 100000 | TPS 5.12026 | ETA 05:20:14
Time 00:05:58 | Step 1671 / 100000 | TPS 5.12496 | ETA 05:19:46
Time 00:06:08 | Step 1723 / 100000 | TPS 5.1235 | ETA 05:19:41
Time 00:06:18 | Step 1775 / 100000 | TPS 5.12725 | ETA 05:19:17
Time 00:06:28 | Step 1825 / 100000 | TPS 4.95292 | ETA 05:30:21
Time 00:06:38 | Step 1877 / 100000 | TPS 5.15297 | ETA 05:17:22
Time 00:06:48 | Step 1929 / 100000 | TPS 5.14881 | ETA 05:17:27
Time 00:06:59 | Step 1981 / 100000 | TPS 5.14515 | ETA 05:17:30
Time 00:07:09 | Step 2029 / 100000 | TPS 4.77535 | ETA 05:41:56
Time 00:07:19 | Step 2081 / 100000 | TPS 5.13928 | ETA 05:17:33
Time 00:07:29 | Step 2133 / 100000 | TPS 5.13671 | ETA 05:17:32
Time 00:07:39 | Step 2185 / 100000 | TPS 5.14016 | ETA 05:17:09
Time 00:07:49 | Step 2237 / 100000 | TPS 5.1252 | ETA 05:17:54
Time 00:07:59 | Step 2289 / 100000 | TPS 5.12367 | ETA 05:17:50
Time 00:08:09 | Step 2341 / 100000 | TPS 5.12548 | ETA 05:17:33
Time 00:08:20 | Step 2393 / 100000 | TPS 5.12175 | ETA 05:17:37
Time 00:08:30 | Step 2445 / 100000 | TPS 5.1112 | ETA 05:18:06
Time 00:08:40 | Step 2497 / 100000 | TPS 5.11929 | ETA 05:17:26
Time 00:08:50 | Step 2549 / 100000 | TPS 5.11011 | ETA 05:17:50
Time 00:09:00 | Step 2601 / 100000 | TPS 5.10293 | ETA 05:18:06
Time 00:09:10 | Step 2653 / 100000 | TPS 5.09768 | ETA 05:18:16
Time 00:09:21 | Step 2705 / 100000 | TPS 5.09971 | ETA 05:17:58
Time 00:09:31 | Step 2757 / 100000 | TPS 5.11314 | ETA 05:16:58
Time 00:09:41 | Step 2809 / 100000 | TPS 5.11198 | ETA 05:16:52
Time 00:09:51 | Step 2861 / 100000 | TPS 5.10755 | ETA 05:16:58
Time 00:10:01 | Step 2913 / 100000 | TPS 5.1039 | ETA 05:17:02
Time 00:10:12 | Step 2965 / 100000 | TPS 5.11159 | ETA 05:16:23
Time 00:10:22 | Step 3013 / 100000 | TPS 4.74517 | ETA 05:40:39
Time 00:10:32 | Step 3065 / 100000 | TPS 5.12497 | ETA 05:15:14
Time 00:10:42 | Step 3117 / 100000 | TPS 5.13285 | ETA 05:14:35
Time 00:10:52 | Step 3169 / 100000 | TPS 5.1341 | ETA 05:14:20
Time 00:11:02 | Step 3221 / 100000 | TPS 5.1412 | ETA 05:13:44
Time 00:11:12 | Step 3273 / 100000 | TPS 5.14078 | ETA 05:13:35
Time 00:11:22 | Step 3325 / 100000 | TPS 5.14884 | ETA 05:12:56
Time 00:11:33 | Step 3377 / 100000 | TPS 5.15556 | ETA 05:12:21
Time 00:11:43 | Step 3428 / 100000 | TPS 5.0804 | ETA 05:16:48
Time 00:11:53 | Step 3480 / 100000 | TPS 5.17404 | ETA 05:10:54
Time 00:12:03 | Step 3532 / 100000 | TPS 5.18036 | ETA 05:10:21
Time 00:12:13 | Step 3584 / 100000 | TPS 5.17589 | ETA 05:10:27
Time 00:12:23 | Step 3635 / 100000 | TPS 5.09569 | ETA 05:15:11
Time 00:12:33 | Step 3687 / 100000 | TPS 5.19294 | ETA 05:09:06
Time 00:12:43 | Step 3739 / 100000 | TPS 5.19455 | ETA 05:08:51
Time 00:12:53 | Step 3792 / 100000 | TPS 5.28661 | ETA 05:03:18
Time 00:13:03 | Step 3844 / 100000 | TPS 5.19372 | ETA 05:08:33
Time 00:13:13 | Step 3897 / 100000 | TPS 5.11944 | ETA 05:12:52
Time 00:13:23 | Step 3950 / 100000 | TPS 5.28922 | ETA 05:02:39
Time 00:13:34 | Step 4001 / 100000 | TPS 4.77592 | ETA 05:35:00
Time 00:13:44 | Step 4053 / 100000 | TPS 5.19166 | ETA 05:08:00
Time 00:13:54 | Step 4105 / 100000 | TPS 5.19246 | ETA 05:07:48
Time 00:14:04 | Step 4157 / 100000 | TPS 5.19131 | ETA 05:07:42
Time 00:14:14 | Step 4209 / 100000 | TPS 5.17905 | ETA 05:08:15
Time 00:14:24 | Step 4261 / 100000 | TPS 5.1991 | ETA 05:06:54
Time 00:14:34 | Step 4313 / 100000 | TPS 5.18815 | ETA 05:07:23
Time 00:14:44 | Step 4365 / 100000 | TPS 5.18376 | ETA 05:07:28
Time 00:14:54 | Step 4417 / 100000 | TPS 5.17962 | ETA 05:07:33
Time 00:15:04 | Step 4469 / 100000 | TPS 5.17225 | ETA 05:07:49
Time 00:15:14 | Step 4521 / 100000 | TPS 5.17195 | ETA 05:07:40
Time 00:15:24 | Step 4573 / 100000 | TPS 5.18959 | ETA 05:06:28
Time 00:15:34 | Step 4625 / 100000 | TPS 5.18114 | ETA 05:06:48
Time 00:15:44 | Step 4677 / 100000 | TPS 5.17544 | ETA 05:06:58
Time 00:15:54 | Step 4729 / 100000 | TPS 5.17352 | ETA 05:06:55
Time 00:16:04 | Step 4781 / 100000 | TPS 5.17264 | ETA 05:06:48
Time 00:16:14 | Step 4833 / 100000 | TPS 5.17647 | ETA 05:06:24
Time 00:16:24 | Step 4885 / 100000 | TPS 5.19112 | ETA 05:05:22
Time 00:16:34 | Step 4937 / 100000 | TPS 5.18671 | ETA 05:05:28
Time 00:16:44 | Step 4989 / 100000 | TPS 5.1925 | ETA 05:04:57
Time 00:16:55 | Step 5039 / 100000 | TPS 4.83802 | ETA 05:27:08
Time 00:17:05 | Step 5091 / 100000 | TPS 5.19889 | ETA 05:04:15
Time 00:17:15 | Step 5144 / 100000 | TPS 5.2939 | ETA 04:58:37
Time 00:17:25 | Step 5197 / 100000 | TPS 5.13821 | ETA 05:07:30
Time 00:17:35 | Step 5251 / 100000 | TPS 5.22415 | ETA 05:02:16
Time 00:17:46 | Step 5305 / 100000 | TPS 5.22147 | ETA 05:02:15
Time 00:17:56 | Step 5359 / 100000 | TPS 5.22703 | ETA 05:01:46
Time 00:18:06 | Step 5413 / 100000 | TPS 5.22458 | ETA 05:01:44
Time 00:18:17 | Step 5467 / 100000 | TPS 5.23768 | ETA 05:00:48
Time 00:18:27 | Step 5521 / 100000 | TPS 5.24866 | ETA 05:00:00
Time 00:18:37 | Step 5575 / 100000 | TPS 5.24716 | ETA 04:59:55
Time 00:18:48 | Step 5629 / 100000 | TPS 5.24479 | ETA 04:59:53
Time 00:18:58 | Step 5683 / 100000 | TPS 5.24091 | ETA 04:59:56
Time 00:19:08 | Step 5737 / 100000 | TPS 5.2519 | ETA 04:59:08
Time 00:19:18 | Step 5791 / 100000 | TPS 5.25945 | ETA 04:58:32
Time 00:19:29 | Step 5845 / 100000 | TPS 5.25465 | ETA 04:58:38
Time 00:19:39 | Step 5899 / 100000 | TPS 5.25047 | ETA 04:58:42
Time 00:19:49 | Step 5953 / 100000 | TPS 5.24021 | ETA 04:59:07
Time 00:20:00 | Step 6003 / 100000 | TPS 4.88286 | ETA 05:20:50
Time 00:20:10 | Step 6057 / 100000 | TPS 5.2472 | ETA 04:58:23
Time 00:20:20 | Step 6111 / 100000 | TPS 5.24195 | ETA 04:58:31
Time 00:20:30 | Step 6165 / 100000 | TPS 5.23461 | ETA 04:58:45
Time 00:20:41 | Step 6219 / 100000 | TPS 5.23202 | ETA 04:58:44
Time 00:20:51 | Step 6273 / 100000 | TPS 5.23784 | ETA 04:58:14
Time 00:21:01 | Step 6327 / 100000 | TPS 5.22724 | ETA 04:58:40
Time 00:21:12 | Step 6381 / 100000 | TPS 5.23075 | ETA 04:58:17
Time 00:21:22 | Step 6435 / 100000 | TPS 5.2323 | ETA 04:58:02
Time 00:21:32 | Step 6489 / 100000 | TPS 5.22271 | ETA 04:58:24
Time 00:21:43 | Step 6541 / 100000 | TPS 5.05159 | ETA 05:08:20
Time 00:21:53 | Step 6595 / 100000 | TPS 5.21515 | ETA 04:58:30
Time 00:22:03 | Step 6649 / 100000 | TPS 5.23248 | ETA 04:57:20
Time 00:22:14 | Step 6703 / 100000 | TPS 5.2291 | ETA 04:57:21
Time 00:22:24 | Step 6757 / 100000 | TPS 5.23361 | ETA 04:56:56
Time 00:22:34 | Step 6811 / 100000 | TPS 5.22884 | ETA 04:57:02
Time 00:22:45 | Step 6865 / 100000 | TPS 5.22723 | ETA 04:56:57
Time 00:22:55 | Step 6919 / 100000 | TPS 5.23206 | ETA 04:56:30
Time 00:23:05 | Step 6973 / 100000 | TPS 5.24522 | ETA 04:55:35
Time 00:23:16 | Step 7023 / 100000 | TPS 4.88549 | ETA 05:17:11
Time 00:23:26 | Step 7077 / 100000 | TPS 5.24873 | ETA 04:55:03
Time 00:23:36 | Step 7131 / 100000 | TPS 5.2517 | ETA 04:54:43
Time 00:23:46 | Step 7185 / 100000 | TPS 5.25211 | ETA 04:54:31
Time 00:23:57 | Step 7239 / 100000 | TPS 5.25878 | ETA 04:53:59
Time 00:24:07 | Step 7293 / 100000 | TPS 5.2725 | ETA 04:53:03
Time 00:24:17 | Step 7347 / 100000 | TPS 5.26973 | ETA 04:53:02
Time 00:24:27 | Step 7401 / 100000 | TPS 5.27181 | ETA 04:52:44
Time 00:24:38 | Step 7455 / 100000 | TPS 5.26978 | ETA 04:52:41
Time 00:24:48 | Step 7509 / 100000 | TPS 5.26818 | ETA 04:52:36
Time 00:24:58 | Step 7563 / 100000 | TPS 5.28971 | ETA 04:51:14
Time 00:25:08 | Step 7617 / 100000 | TPS 5.28408 | ETA 04:51:23
Time 00:25:19 | Step 7671 / 100000 | TPS 5.28305 | ETA 04:51:16
Time 00:25:29 | Step 7725 / 100000 | TPS 5.28574 | ETA 04:50:57
Time 00:25:39 | Step 7779 / 100000 | TPS 5.2784 | ETA 04:51:11
Time 00:25:49 | Step 7833 / 100000 | TPS 5.28195 | ETA 04:50:49
Time 00:25:59 | Step 7887 / 100000 | TPS 5.28222 | ETA 04:50:38
Time 00:26:10 | Step 7941 / 100000 | TPS 5.27818 | ETA 04:50:41
Time 00:26:20 | Step 7995 / 100000 | TPS 5.27034 | ETA 04:50:57
Time 00:26:30 | Step 8045 / 100000 | TPS 4.89291 | ETA 05:13:13
Time 00:26:40 | Step 8099 / 100000 | TPS 5.25614 | ETA 04:51:24
Time 00:26:51 | Step 8153 / 100000 | TPS 5.26829 | ETA 04:50:33
Time 00:27:01 | Step 8207 / 100000 | TPS 5.26125 | ETA 04:50:47
Time 00:27:11 | Step 8261 / 100000 | TPS 5.25408 | ETA 04:51:00
Time 00:27:21 | Step 8315 / 100000 | TPS 5.24968 | ETA 04:51:04
Time 00:27:32 | Step 8369 / 100000 | TPS 5.25013 | ETA 04:50:53
Time 00:27:42 | Step 8423 / 100000 | TPS 5.24063 | ETA 04:51:14
Time 00:27:52 | Step 8477 / 100000 | TPS 5.25009 | ETA 04:50:32
Time 00:28:03 | Step 8531 / 100000 | TPS 5.24222 | ETA 04:50:48
Time 00:28:13 | Step 8585 / 100000 | TPS 5.24464 | ETA 04:50:30
Time 00:28:23 | Step 8639 / 100000 | TPS 5.23956 | ETA 04:50:36
Time 00:28:34 | Step 8693 / 100000 | TPS 5.24692 | ETA 04:50:02
Time 00:28:44 | Step 8747 / 100000 | TPS 5.25199 | ETA 04:49:34
Time 00:28:54 | Step 8801 / 100000 | TPS 5.25191 | ETA 04:49:24
Time 00:29:04 | Step 8855 / 100000 | TPS 5.25085 | ETA 04:49:18
Time 00:29:15 | Step 8909 / 100000 | TPS 5.24127 | ETA 04:49:39
Time 00:29:25 | Step 8963 / 100000 | TPS 5.24963 | ETA 04:49:01
Time 00:29:35 | Step 9013 / 100000 | TPS 4.88041 | ETA 05:10:43
Time 00:29:45 | Step 9067 / 100000 | TPS 5.26111 | ETA 04:48:03
Time 00:29:56 | Step 9121 / 100000 | TPS 5.26595 | ETA 04:47:37
Time 00:30:06 | Step 9175 / 100000 | TPS 5.26211 | ETA 04:47:40
Time 00:30:16 | Step 9229 / 100000 | TPS 5.26169 | ETA 04:47:31
Time 00:30:27 | Step 9283 / 100000 | TPS 5.26277 | ETA 04:47:17
Time 00:30:37 | Step 9337 / 100000 | TPS 5.27706 | ETA 04:46:20
Time 00:30:47 | Step 9391 / 100000 | TPS 5.28084 | ETA 04:45:58
Time 00:30:57 | Step 9445 / 100000 | TPS 5.27521 | ETA 04:46:06
Time 00:31:07 | Step 9499 / 100000 | TPS 5.27579 | ETA 04:45:54
Time 00:31:18 | Step 9553 / 100000 | TPS 5.27617 | ETA 04:45:42
Time 00:31:28 | Step 9607 / 100000 | TPS 5.26934 | ETA 04:45:54
Time 00:31:38 | Step 9661 / 100000 | TPS 5.29991 | ETA 04:44:05
Time 00:31:48 | Step 9715 / 100000 | TPS 5.28204 | ETA 04:44:52
Time 00:31:59 | Step 9769 / 100000 | TPS 5.28128 | ETA 04:44:45
Time 00:32:09 | Step 9823 / 100000 | TPS 5.26653 | ETA 04:45:22
Time 00:32:19 | Step 9877 / 100000 | TPS 5.27535 | ETA 04:44:43
Time 00:32:29 | Step 9931 / 100000 | TPS 5.27046 | ETA 04:44:49
Time 00:32:40 | Step 9985 / 100000 | TPS 5.27784 | ETA 04:44:15
Time 00:32:50 | Step 10035 / 100000 | TPS 4.90229 | ETA 05:05:51
Time 00:33:00 | Step 10089 / 100000 | TPS 5.26333 | ETA 04:44:42
Time 00:33:10 | Step 10143 / 100000 | TPS 5.25696 | ETA 04:44:52
Time 00:33:21 | Step 10197 / 100000 | TPS 5.24829 | ETA 04:45:10
Time 00:33:31 | Step 10251 / 100000 | TPS 5.2565 | ETA 04:44:33
Time 00:33:41 | Step 10305 / 100000 | TPS 5.25745 | ETA 04:44:20
Time 00:33:51 | Step 10359 / 100000 | TPS 5.25014 | ETA 04:44:34
Time 00:34:02 | Step 10413 / 100000 | TPS 5.24943 | ETA 04:44:26
Time 00:34:12 | Step 10467 / 100000 | TPS 5.24133 | ETA 04:44:42
Time 00:34:22 | Step 10521 / 100000 | TPS 5.23503 | ETA 04:44:52
Time 00:34:33 | Step 10575 / 100000 | TPS 5.24919 | ETA 04:43:55
Time 00:34:43 | Step 10629 / 100000 | TPS 5.24181 | ETA 04:44:09
Time 00:34:53 | Step 10683 / 100000 | TPS 5.24329 | ETA 04:43:54
Time 00:35:04 | Step 10737 / 100000 | TPS 5.2317 | ETA 04:44:21
Time 00:35:14 | Step 10791 / 100000 | TPS 5.23388 | ETA 04:44:04
Time 00:35:24 | Step 10845 / 100000 | TPS 5.24463 | ETA 04:43:19
Time 00:35:34 | Step 10899 / 100000 | TPS 5.24503 | ETA 04:43:07
Time 00:35:45 | Step 10953 / 100000 | TPS 5.23892 | ETA 04:43:17
Time 00:35:55 | Step 11003 / 100000 | TPS 4.87499 | ETA 05:04:15
Time 00:36:05 | Step 11057 / 100000 | TPS 5.24254 | ETA 04:42:45
Time 00:36:16 | Step 11111 / 100000 | TPS 5.23041 | ETA 04:43:14
Time 00:36:26 | Step 11165 / 100000 | TPS 5.25356 | ETA 04:41:49
Time 00:36:36 | Step 11219 / 100000 | TPS 5.24517 | ETA 04:42:06
Time 00:36:46 | Step 11273 / 100000 | TPS 5.24124 | ETA 04:42:08
Time 00:36:57 | Step 11327 / 100000 | TPS 5.24694 | ETA 04:41:39
Time 00:37:07 | Step 11381 / 100000 | TPS 5.24667 | ETA 04:41:30
Time 00:37:17 | Step 11435 / 100000 | TPS 5.25092 | ETA 04:41:06
Time 00:37:28 | Step 11489 / 100000 | TPS 5.25226 | ETA 04:40:51
Time 00:37:38 | Step 11543 / 100000 | TPS 5.2472 | ETA 04:40:57
Time 00:37:48 | Step 11597 / 100000 | TPS 5.2392 | ETA 04:41:13
Time 00:37:59 | Step 11651 / 100000 | TPS 5.23447 | ETA 04:41:18
Time 00:38:09 | Step 11705 / 100000 | TPS 5.23382 | ETA 04:41:10
Time 00:38:19 | Step 11759 / 100000 | TPS 5.2508 | ETA 04:40:05
Time 00:38:29 | Step 11813 / 100000 | TPS 5.24152 | ETA 04:40:24
Time 00:38:40 | Step 11867 / 100000 | TPS 5.23859 | ETA 04:40:23
Time 00:38:50 | Step 11921 / 100000 | TPS 5.23591 | ETA 04:40:22
Time 00:39:00 | Step 11975 / 100000 | TPS 5.22458 | ETA 04:40:48
Time 00:39:11 | Step 12025 / 100000 | TPS 4.85091 | ETA 05:02:15
Time 00:39:21 | Step 12079 / 100000 | TPS 5.2339 | ETA 04:39:58
Time 00:39:31 | Step 12133 / 100000 | TPS 5.22655 | ETA 04:40:11
Time 00:39:41 | Step 12186 / 100000 | TPS 5.29827 | ETA 04:36:14
Time 00:39:52 | Step 12239 / 100000 | TPS 5.12875 | ETA 04:45:11
Time 00:40:02 | Step 12293 / 100000 | TPS 5.22256 | ETA 04:39:53
Time 00:40:12 | Step 12347 / 100000 | TPS 5.21907 | ETA 04:39:54
Time 00:40:22 | Step 12400 / 100000 | TPS 5.2987 | ETA 04:35:32
Time 00:40:33 | Step 12453 / 100000 | TPS 5.12337 | ETA 04:44:47
Time 00:40:43 | Step 12506 / 100000 | TPS 5.28829 | ETA 04:35:44
Time 00:40:53 | Step 12559 / 100000 | TPS 5.12764 | ETA 04:44:12
Time 00:41:03 | Step 12611 / 100000 | TPS 5.19554 | ETA 04:40:20
Time 00:41:13 | Step 12664 / 100000 | TPS 5.29683 | ETA 04:34:48
Time 00:41:23 | Step 12717 / 100000 | TPS 5.12066 | ETA 04:44:05
Time 00:41:33 | Step 12770 / 100000 | TPS 5.2894 | ETA 04:34:51
Time 00:41:43 | Step 12822 / 100000 | TPS 5.19589 | ETA 04:39:38
Time 00:41:53 | Step 12874 / 100000 | TPS 5.19598 | ETA 04:39:27
Time 00:42:04 | Step 12926 / 100000 | TPS 5.19956 | ETA 04:39:06
Time 00:42:14 | Step 12979 / 100000 | TPS 5.11994 | ETA 04:43:16
Time 00:42:24 | Step 13029 / 100000 | TPS 4.85005 | ETA 04:58:51
Time 00:42:34 | Step 13082 / 100000 | TPS 5.29142 | ETA 04:33:46
Time 00:42:45 | Step 13135 / 100000 | TPS 5.12043 | ETA 04:42:44
Time 00:42:55 | Step 13187 / 100000 | TPS 5.1968 | ETA 04:38:25
Time 00:43:05 | Step 13239 / 100000 | TPS 5.19967 | ETA 04:38:05
Time 00:43:15 | Step 13291 / 100000 | TPS 5.19803 | ETA 04:38:01
Time 00:43:25 | Step 13343 / 100000 | TPS 5.19997 | ETA 04:37:44
Time 00:43:35 | Step 13396 / 100000 | TPS 5.28904 | ETA 04:32:54
Time 00:43:45 | Step 13448 / 100000 | TPS 5.18996 | ETA 04:37:56
Time 00:43:55 | Step 13500 / 100000 | TPS 5.18673 | ETA 04:37:57
Time 00:44:05 | Step 13552 / 100000 | TPS 5.1987 | ETA 04:37:08
Time 00:44:15 | Step 13604 / 100000 | TPS 5.19355 | ETA 04:37:15
Time 00:44:25 | Step 13656 / 100000 | TPS 5.1958 | ETA 04:36:58
Time 00:44:35 | Step 13708 / 100000 | TPS 5.18759 | ETA 04:37:14
Time 00:44:45 | Step 13759 / 100000 | TPS 5.09628 | ETA 04:42:02
Time 00:44:55 | Step 13811 / 100000 | TPS 5.17899 | ETA 04:37:22
Time 00:45:05 | Step 13863 / 100000 | TPS 5.19048 | ETA 04:36:35
Time 00:45:15 | Step 13915 / 100000 | TPS 5.18256 | ETA 04:36:50
Time 00:45:25 | Step 13967 / 100000 | TPS 5.17712 | ETA 04:36:57
Time 00:45:35 | Step 14015 / 100000 | TPS 4.79931 | ETA 04:58:36
Time 00:45:45 | Step 14067 / 100000 | TPS 5.16259 | ETA 04:37:25
Time 00:45:55 | Step 14119 / 100000 | TPS 5.1544 | ETA 04:37:41
Time 00:46:05 | Step 14171 / 100000 | TPS 5.17226 | ETA 04:36:34
Time 00:46:15 | Step 14223 / 100000 | TPS 5.1722 | ETA 04:36:24
Time 00:46:25 | Step 14275 / 100000 | TPS 5.16167 | ETA 04:36:48
Time 00:46:35 | Step 14327 / 100000 | TPS 5.15972 | ETA 04:36:44
Time 00:46:45 | Step 14379 / 100000 | TPS 5.14454 | ETA 04:37:23
Time 00:46:55 | Step 14431 / 100000 | TPS 5.14722 | ETA 04:37:04
Time 00:47:06 | Step 14483 / 100000 | TPS 5.15924 | ETA 04:36:15
Time 00:47:16 | Step 14535 / 100000 | TPS 5.15265 | ETA 04:36:26
Time 00:47:26 | Step 14587 / 100000 | TPS 5.14486 | ETA 04:36:41
Time 00:47:36 | Step 14639 / 100000 | TPS 5.14618 | ETA 04:36:27
Time 00:47:46 | Step 14691 / 100000 | TPS 5.14974 | ETA 04:36:05
Time 00:47:56 | Step 14743 / 100000 | TPS 5.15486 | ETA 04:35:39
Time 00:48:06 | Step 14795 / 100000 | TPS 5.15335 | ETA 04:35:33
Time 00:48:16 | Step 14847 / 100000 | TPS 5.14627 | ETA 04:35:46
Time 00:48:26 | Step 14899 / 100000 | TPS 5.15817 | ETA 04:34:58
Time 00:48:36 | Step 14949 / 100000 | TPS 4.98297 | ETA 04:44:28
Time 00:48:47 | Step 15001 / 100000 | TPS 4.79464 | ETA 04:55:27
Time 00:48:57 | Step 15053 / 100000 | TPS 5.15755 | ETA 04:34:30
Time 00:49:07 | Step 15105 / 100000 | TPS 5.15154 | ETA 04:34:39
Time 00:49:17 | Step 15157 / 100000 | TPS 5.14958 | ETA 04:34:35
Time 00:49:28 | Step 15209 / 100000 | TPS 5.14095 | ETA 04:34:53
Time 00:49:38 | Step 15261 / 100000 | TPS 5.14345 | ETA 04:34:35
Time 00:49:48 | Step 15313 / 100000 | TPS 5.12774 | ETA 04:35:15
Time 00:49:58 | Step 15364 / 100000 | TPS 5.06709 | ETA 04:38:23
Time 00:50:08 | Step 15416 / 100000 | TPS 5.1325 | ETA 04:34:40
Time 00:50:18 | Step 15468 / 100000 | TPS 5.12931 | ETA 04:34:40
Time 00:50:28 | Step 15520 / 100000 | TPS 5.13493 | ETA 04:34:12
Time 00:50:38 | Step 15572 / 100000 | TPS 5.13004 | ETA 04:34:17
Time 00:50:49 | Step 15623 / 100000 | TPS 5.03899 | ETA 04:39:04
Time 00:50:59 | Step 15675 / 100000 | TPS 5.13078 | ETA 04:33:55
Time 00:51:09 | Step 15727 / 100000 | TPS 5.12745 | ETA 04:33:55
Time 00:51:19 | Step 15779 / 100000 | TPS 5.11966 | ETA 04:34:10
Time 00:51:29 | Step 15831 / 100000 | TPS 5.11565 | ETA 04:34:13
Time 00:51:39 | Step 15883 / 100000 | TPS 5.12162 | ETA 04:33:43
Time 00:51:49 | Step 15935 / 100000 | TPS 5.11427 | ETA 04:33:57
Time 00:52:00 | Step 15987 / 100000 | TPS 5.12606 | ETA 04:33:09
Time 00:52:10 | Step 16035 / 100000 | TPS 4.75009 | ETA 04:54:36
Time 00:52:20 | Step 16087 / 100000 | TPS 5.10189 | ETA 04:34:07
Time 00:52:30 | Step 16139 / 100000 | TPS 5.10757 | ETA 04:33:38
Time 00:52:40 | Step 16191 / 100000 | TPS 5.09464 | ETA 04:34:10
Time 00:52:50 | Step 16243 / 100000 | TPS 5.09712 | ETA 04:33:52
Time 00:53:01 | Step 16295 / 100000 | TPS 5.10373 | ETA 04:33:20
Time 00:53:11 | Step 16347 / 100000 | TPS 5.09568 | ETA 04:33:36
Time 00:53:21 | Step 16399 / 100000 | TPS 5.08997 | ETA 04:33:44
Time 00:53:31 | Step 16451 / 100000 | TPS 5.0971 | ETA 04:33:11
Time 00:53:41 | Step 16503 / 100000 | TPS 5.08827 | ETA 04:33:29
Time 00:53:52 | Step 16555 / 100000 | TPS 5.10196 | ETA 04:32:35
Time 00:54:02 | Step 16607 / 100000 | TPS 5.0886 | ETA 04:33:08
Time 00:54:12 | Step 16659 / 100000 | TPS 5.09419 | ETA 04:32:40
Time 00:54:22 | Step 16711 / 100000 | TPS 5.09139 | ETA 04:32:38
Time 00:54:33 | Step 16763 / 100000 | TPS 5.09223 | ETA 04:32:25
Time 00:54:43 | Step 16815 / 100000 | TPS 5.08395 | ETA 04:32:42
Time 00:54:53 | Step 16867 / 100000 | TPS 5.09925 | ETA 04:31:42
Time 00:55:03 | Step 16919 / 100000 | TPS 5.09302 | ETA 04:31:52
Time 00:55:13 | Step 16971 / 100000 | TPS 5.08809 | ETA 04:31:58
Time 00:55:24 | Step 17019 / 100000 | TPS 4.71879 | ETA 04:53:05
Time 00:55:34 | Step 17071 / 100000 | TPS 5.08555 | ETA 04:31:46
Time 00:55:44 | Step 17123 / 100000 | TPS 5.08283 | ETA 04:31:45
Time 00:55:54 | Step 17175 / 100000 | TPS 5.09031 | ETA 04:31:11
Time 00:56:04 | Step 17227 / 100000 | TPS 5.0803 | ETA 04:31:32
Time 00:56:15 | Step 17279 / 100000 | TPS 5.07764 | ETA 04:31:31
Time 00:56:25 | Step 17331 / 100000 | TPS 5.06907 | ETA 04:31:48
Time 00:56:35 | Step 17383 / 100000 | TPS 5.06808 | ETA 04:31:41
Time 00:56:45 | Step 17435 / 100000 | TPS 5.06345 | ETA 04:31:46
Time 00:56:56 | Step 17487 / 100000 | TPS 5.07196 | ETA 04:31:08
Time 00:57:06 | Step 17537 / 100000 | TPS 4.89501 | ETA 04:40:46
Time 00:57:16 | Step 17589 / 100000 | TPS 5.0652 | ETA 04:31:10
Time 00:57:27 | Step 17641 / 100000 | TPS 5.05811 | ETA 04:31:22
Time 00:57:37 | Step 17693 / 100000 | TPS 5.05695 | ETA 04:31:16
Time 00:57:47 | Step 17745 / 100000 | TPS 5.059 | ETA 04:30:59
Time 00:57:57 | Step 17797 / 100000 | TPS 5.0602 | ETA 04:30:45
Time 00:58:08 | Step 17849 / 100000 | TPS 5.04855 | ETA 04:31:12
Time 00:58:18 | Step 17901 / 100000 | TPS 5.04622 | ETA 04:31:09
Time 00:58:28 | Step 17953 / 100000 | TPS 5.04416 | ETA 04:31:05
Time 00:58:39 | Step 18001 / 100000 | TPS 4.68428 | ETA 04:51:45
Time 00:58:49 | Step 18053 / 100000 | TPS 5.05386 | ETA 04:30:14
Time 00:58:59 | Step 18105 / 100000 | TPS 5.05055 | ETA 04:30:15
Time 00:59:09 | Step 18157 / 100000 | TPS 5.04596 | ETA 04:30:19
Time 00:59:20 | Step 18209 / 100000 | TPS 5.03312 | ETA 04:30:50
Time 00:59:30 | Step 18261 / 100000 | TPS 5.03467 | ETA 04:30:35
Time 00:59:40 | Step 18313 / 100000 | TPS 5.03028 | ETA 04:30:39
Time 00:59:51 | Step 18365 / 100000 | TPS 5.0438 | ETA 04:29:45
Time 01:00:01 | Step 18417 / 100000 | TPS 5.03684 | ETA 04:29:57
Time 01:00:11 | Step 18469 / 100000 | TPS 5.03338 | ETA 04:29:58
Time 01:00:22 | Step 18521 / 100000 | TPS 5.03561 | ETA 04:29:40
Time 01:00:32 | Step 18573 / 100000 | TPS 5.0315 | ETA 04:29:43
Time 01:00:42 | Step 18625 / 100000 | TPS 5.0286 | ETA 04:29:42
Time 01:00:53 | Step 18677 / 100000 | TPS 5.03463 | ETA 04:29:12
Time 01:01:03 | Step 18729 / 100000 | TPS 5.03454 | ETA 04:29:02
Time 01:01:13 | Step 18781 / 100000 | TPS 5.02931 | ETA 04:29:09
Time 01:01:24 | Step 18831 / 100000 | TPS 4.85087 | ETA 04:38:52
Time 01:01:34 | Step 18883 / 100000 | TPS 5.02813 | ETA 04:28:52
Time 01:01:44 | Step 18935 / 100000 | TPS 5.02443 | ETA 04:28:54
Time 01:01:55 | Step 18987 / 100000 | TPS 5.0287 | ETA 04:28:30
Time 01:02:05 | Step 19035 / 100000 | TPS 4.67513 | ETA 04:48:38
Time 01:02:15 | Step 19087 / 100000 | TPS 5.0197 | ETA 04:28:39
Time 01:02:25 | Step 19138 / 100000 | TPS 5.0966 | ETA 04:24:25
Time 01:02:36 | Step 19189 / 100000 | TPS 4.92851 | ETA 04:33:16
Time 01:02:46 | Step 19241 / 100000 | TPS 5.01534 | ETA 04:28:22
Time 01:02:56 | Step 19293 / 100000 | TPS 5.02049 | ETA 04:27:55
Time 01:03:07 | Step 19345 / 100000 | TPS 5.01953 | ETA 04:27:48
Time 01:03:17 | Step 19397 / 100000 | TPS 5.01784 | ETA 04:27:43
Time 01:03:28 | Step 19449 / 100000 | TPS 5.01393 | ETA 04:27:45
Time 01:03:38 | Step 19500 / 100000 | TPS 5.09868 | ETA 04:23:08
Time 01:03:48 | Step 19551 / 100000 | TPS 4.93085 | ETA 04:31:55
Time 01:03:58 | Step 19603 / 100000 | TPS 5.01455 | ETA 04:27:12
Time 01:04:09 | Step 19654 / 100000 | TPS 4.92762 | ETA 04:31:45
Time 01:04:19 | Step 19705 / 100000 | TPS 5.09472 | ETA 04:22:40
Time 01:04:29 | Step 19755 / 100000 | TPS 4.9977 | ETA 04:27:36
Time 01:04:39 | Step 19805 / 100000 | TPS 4.82606 | ETA 04:36:57
Time 01:04:49 | Step 19856 / 100000 | TPS 5.09512 | ETA 04:22:09
Time 01:04:59 | Step 19907 / 100000 | TPS 4.92054 | ETA 04:31:17
Time 01:05:09 | Step 19958 / 100000 | TPS 5.08796 | ETA 04:22:11
Time 01:05:20 | Step 20005 / 100000 | TPS 4.55278 | ETA 04:52:50
Time 01:05:30 | Step 20055 / 100000 | TPS 4.99016 | ETA 04:27:00
Time 01:05:40 | Step 20105 / 100000 | TPS 4.97701 | ETA 04:27:32
Time 01:05:50 | Step 20155 / 100000 | TPS 4.99813 | ETA 04:26:14
Time 01:06:00 | Step 20205 / 100000 | TPS 4.99287 | ETA 04:26:21
Time 01:06:10 | Step 20255 / 100000 | TPS 4.99112 | ETA 04:26:17
Time 01:06:20 | Step 20305 / 100000 | TPS 4.98872 | ETA 04:26:15
Time 01:06:30 | Step 20353 / 100000 | TPS 4.72394 | ETA 04:41:00
Time 01:06:40 | Step 20395 / 100000 | TPS 4.09801 | ETA 05:23:45
Time 01:06:50 | Step 20445 / 100000 | TPS 4.98675 | ETA 04:25:53
Time 01:07:00 | Step 20495 / 100000 | TPS 4.98845 | ETA 04:25:37
Time 01:07:10 | Step 20545 / 100000 | TPS 4.97968 | ETA 04:25:55
Time 01:07:20 | Step 20595 / 100000 | TPS 4.97396 | ETA 04:26:04
Time 01:07:30 | Step 20645 / 100000 | TPS 4.97752 | ETA 04:25:42
Time 01:07:40 | Step 20695 / 100000 | TPS 4.97225 | ETA 04:25:49
Time 01:07:50 | Step 20745 / 100000 | TPS 4.98259 | ETA 04:25:06
Time 01:08:00 | Step 20795 / 100000 | TPS 4.99011 | ETA 04:24:32
Time 01:08:11 | Step 20845 / 100000 | TPS 4.9824 | ETA 04:24:46
Time 01:08:21 | Step 20895 / 100000 | TPS 4.97554 | ETA 04:24:58
Time 01:08:31 | Step 20945 / 100000 | TPS 4.97486 | ETA 04:24:50
Time 01:08:41 | Step 20995 / 100000 | TPS 4.97015 | ETA 04:24:55
Time 01:08:51 | Step 21042 / 100000 | TPS 4.69775 | ETA 04:40:07
Time 01:09:01 | Step 21091 / 100000 | TPS 4.89559 | ETA 04:28:38
Time 01:09:11 | Step 21141 / 100000 | TPS 4.97474 | ETA 04:24:11
Time 01:09:21 | Step 21191 / 100000 | TPS 4.97366 | ETA 04:24:05
Time 01:09:31 | Step 21241 / 100000 | TPS 4.96823 | ETA 04:24:12
Time 01:09:41 | Step 21291 / 100000 | TPS 4.968 | ETA 04:24:03
Time 01:09:51 | Step 21341 / 100000 | TPS 4.9724 | ETA 04:23:39
Time 01:10:01 | Step 21391 / 100000 | TPS 4.97174 | ETA 04:23:31
Time 01:10:11 | Step 21441 / 100000 | TPS 4.97123 | ETA 04:23:22
Time 01:10:21 | Step 21491 / 100000 | TPS 4.9598 | ETA 04:23:49
Time 01:10:31 | Step 21541 / 100000 | TPS 4.9607 | ETA 04:23:36
Time 01:10:41 | Step 21591 / 100000 | TPS 4.95869 | ETA 04:23:32
Time 01:10:51 | Step 21641 / 100000 | TPS 4.96404 | ETA 04:23:05
Time 01:11:02 | Step 21691 / 100000 | TPS 4.96078 | ETA 04:23:05
Time 01:11:12 | Step 21741 / 100000 | TPS 4.96301 | ETA 04:22:48
Time 01:11:22 | Step 21791 / 100000 | TPS 4.95836 | ETA 04:22:53
Time 01:11:32 | Step 21841 / 100000 | TPS 4.95164 | ETA 04:23:04
Time 01:11:42 | Step 21891 / 100000 | TPS 4.95532 | ETA 04:22:42
Time 01:11:52 | Step 21941 / 100000 | TPS 4.95491 | ETA 04:22:33
Time 01:12:02 | Step 21991 / 100000 | TPS 4.96587 | ETA 04:21:49
Time 01:12:12 | Step 22038 / 100000 | TPS 4.69114 | ETA 04:36:58
Time 01:12:22 | Step 22087 / 100000 | TPS 4.86831 | ETA 04:26:44
Time 01:12:32 | Step 22137 / 100000 | TPS 4.96738 | ETA 04:21:14
Time 01:12:42 | Step 22187 / 100000 | TPS 4.96271 | ETA 04:21:19
Time 01:12:52 | Step 22237 / 100000 | TPS 4.95159 | ETA 04:21:44
Time 01:13:02 | Step 22287 / 100000 | TPS 4.96203 | ETA 04:21:01
Time 01:13:12 | Step 22337 / 100000 | TPS 4.96044 | ETA 04:20:56
Time 01:13:23 | Step 22387 / 100000 | TPS 4.95483 | ETA 04:21:04
Time 01:13:33 | Step 22437 / 100000 | TPS 4.95132 | ETA 04:21:05
Time 01:13:43 | Step 22487 / 100000 | TPS 4.94864 | ETA 04:21:03
Time 01:13:53 | Step 22537 / 100000 | TPS 4.96867 | ETA 04:19:50
Time 01:14:03 | Step 22587 / 100000 | TPS 4.95934 | ETA 04:20:09
Time 01:14:13 | Step 22637 / 100000 | TPS 4.95165 | ETA 04:20:23
Time 01:14:23 | Step 22687 / 100000 | TPS 4.95318 | ETA 04:20:08
Time 01:14:33 | Step 22737 / 100000 | TPS 4.94804 | ETA 04:20:14
Time 01:14:43 | Step 22787 / 100000 | TPS 4.95559 | ETA 04:19:40
Time 01:14:53 | Step 22837 / 100000 | TPS 4.9484 | ETA 04:19:53
Time 01:15:03 | Step 22887 / 100000 | TPS 4.96304 | ETA 04:18:57
Time 01:15:14 | Step 22937 / 100000 | TPS 4.9571 | ETA 04:19:05
Time 01:15:24 | Step 22987 / 100000 | TPS 4.9468 | ETA 04:19:28
Time 01:15:34 | Step 23033 / 100000 | TPS 4.5909 | ETA 04:39:25
Time 01:15:44 | Step 23083 / 100000 | TPS 4.95168 | ETA 04:18:53
Time 01:15:54 | Step 23133 / 100000 | TPS 4.94939 | ETA 04:18:50
Time 01:16:04 | Step 23183 / 100000 | TPS 4.9546 | ETA 04:18:24
Time 01:16:14 | Step 23233 / 100000 | TPS 4.9479 | ETA 04:18:35
Time 01:16:24 | Step 23283 / 100000 | TPS 4.94556 | ETA 04:18:32
Time 01:16:34 | Step 23333 / 100000 | TPS 4.95222 | ETA 04:18:01
Time 01:16:44 | Step 23383 / 100000 | TPS 4.9437 | ETA 04:18:17
Time 01:16:55 | Step 23433 / 100000 | TPS 4.92936 | ETA 04:18:52
Time 01:17:05 | Step 23483 / 100000 | TPS 4.94666 | ETA 04:17:48
Time 01:17:15 | Step 23533 / 100000 | TPS 4.94352 | ETA 04:17:48
Time 01:17:25 | Step 23583 / 100000 | TPS 4.93344 | ETA 04:18:09
Time 01:17:35 | Step 23633 / 100000 | TPS 4.93104 | ETA 04:18:06
Time 01:17:45 | Step 23683 / 100000 | TPS 4.93185 | ETA 04:17:54
Time 01:17:55 | Step 23733 / 100000 | TPS 4.93257 | ETA 04:17:41
Time 01:18:05 | Step 23783 / 100000 | TPS 4.9471 | ETA 04:16:46
Time 01:18:16 | Step 23833 / 100000 | TPS 4.9371 | ETA 04:17:07
Time 01:18:26 | Step 23883 / 100000 | TPS 4.93678 | ETA 04:16:58
Time 01:18:36 | Step 23933 / 100000 | TPS 4.93812 | ETA 04:16:44
Time 01:18:46 | Step 23983 / 100000 | TPS 4.93379 | ETA 04:16:47
Time 01:18:56 | Step 24029 / 100000 | TPS 4.57802 | ETA 04:36:34
Time 01:19:06 | Step 24079 / 100000 | TPS 4.94736 | ETA 04:15:45
Time 01:19:16 | Step 24129 / 100000 | TPS 4.94643 | ETA 04:15:38
Time 01:19:26 | Step 24179 / 100000 | TPS 4.94277 | ETA 04:15:39
Time 01:19:36 | Step 24229 / 100000 | TPS 4.9433 | ETA 04:15:28
Time 01:19:47 | Step 24279 / 100000 | TPS 4.93499 | ETA 04:15:43
Time 01:19:57 | Step 24329 / 100000 | TPS 4.93391 | ETA 04:15:36
Time 01:20:07 | Step 24379 / 100000 | TPS 4.94335 | ETA 04:14:57
Time 01:20:17 | Step 24429 / 100000 | TPS 4.94122 | ETA 04:14:53
Time 01:20:27 | Step 24479 / 100000 | TPS 4.94216 | ETA 04:14:40
Time 01:20:37 | Step 24529 / 100000 | TPS 4.93374 | ETA 04:14:56
Time 01:20:47 | Step 24579 / 100000 | TPS 4.94317 | ETA 04:14:17
Time 01:20:57 | Step 24629 / 100000 | TPS 4.94626 | ETA 04:13:57
Time 01:21:08 | Step 24679 / 100000 | TPS 4.94976 | ETA 04:13:37
Time 01:21:18 | Step 24729 / 100000 | TPS 4.94829 | ETA 04:13:31
Time 01:21:28 | Step 24779 / 100000 | TPS 4.948 | ETA 04:13:22
Time 01:21:38 | Step 24829 / 100000 | TPS 4.94647 | ETA 04:13:16
Time 01:21:48 | Step 24879 / 100000 | TPS 4.93127 | ETA 04:13:53
Time 01:21:58 | Step 24929 / 100000 | TPS 4.9371 | ETA 04:13:25
Time 01:22:08 | Step 24979 / 100000 | TPS 4.94978 | ETA 04:12:36
Time 01:22:18 | Step 25025 / 100000 | TPS 4.58512 | ETA 04:32:31
Time 01:22:28 | Step 25075 / 100000 | TPS 4.95208 | ETA 04:12:09
Time 01:22:38 | Step 25125 / 100000 | TPS 4.93444 | ETA 04:12:53
Time 01:22:49 | Step 25175 / 100000 | TPS 4.94715 | ETA 04:12:04
Time 01:22:59 | Step 25225 / 100000 | TPS 4.94406 | ETA 04:12:04
Time 01:23:09 | Step 25275 / 100000 | TPS 4.95083 | ETA 04:11:33
Time 01:23:19 | Step 25325 / 100000 | TPS 4.93219 | ETA 04:12:20
Time 01:23:29 | Step 25375 / 100000 | TPS 4.93653 | ETA 04:11:56
Time 01:23:39 | Step 25425 / 100000 | TPS 4.93292 | ETA 04:11:57
Time 01:23:49 | Step 25475 / 100000 | TPS 4.92955 | ETA 04:11:57
Time 01:23:59 | Step 25525 / 100000 | TPS 4.93662 | ETA 04:11:26
Time 01:24:10 | Step 25575 / 100000 | TPS 4.9381 | ETA 04:11:11
Time 01:24:20 | Step 25625 / 100000 | TPS 4.93809 | ETA 04:11:01
Time 01:24:30 | Step 25675 / 100000 | TPS 4.93186 | ETA 04:11:10
Time 01:24:40 | Step 25725 / 100000 | TPS 4.9364 | ETA 04:10:46
Time 01:24:50 | Step 25774 / 100000 | TPS 4.8476 | ETA 04:15:11
Time 01:25:00 | Step 25823 / 100000 | TPS 4.85287 | ETA 04:14:45
Time 01:25:10 | Step 25873 / 100000 | TPS 4.94176 | ETA 04:10:00
Time 01:25:20 | Step 25923 / 100000 | TPS 4.94211 | ETA 04:09:48
Time 01:25:31 | Step 25973 / 100000 | TPS 4.93848 | ETA 04:09:49
Time 01:25:41 | Step 26019 / 100000 | TPS 4.58076 | ETA 04:29:10
Time 01:25:51 | Step 26069 / 100000 | TPS 4.93907 | ETA 04:09:28
Time 01:26:01 | Step 26119 / 100000 | TPS 4.93377 | ETA 04:09:34
Time 01:26:11 | Step 26169 / 100000 | TPS 4.94451 | ETA 04:08:51
Time 01:26:21 | Step 26219 / 100000 | TPS 4.9442 | ETA 04:08:42
Time 01:26:31 | Step 26269 / 100000 | TPS 4.94448 | ETA 04:08:31
Time 01:26:41 | Step 26319 / 100000 | TPS 4.93495 | ETA 04:08:50
Time 01:26:51 | Step 26369 / 100000 | TPS 4.93909 | ETA 04:08:27
Time 01:27:02 | Step 26419 / 100000 | TPS 4.93835 | ETA 04:08:19
Time 01:27:12 | Step 26469 / 100000 | TPS 4.94805 | ETA 04:07:40
Time 01:27:22 | Step 26519 / 100000 | TPS 4.9465 | ETA 04:07:35
Time 01:27:32 | Step 26569 / 100000 | TPS 4.95042 | ETA 04:07:13
Time 01:27:42 | Step 26619 / 100000 | TPS 4.94691 | ETA 04:07:13
Time 01:27:52 | Step 26669 / 100000 | TPS 4.94474 | ETA 04:07:10
Time 01:28:02 | Step 26719 / 100000 | TPS 4.94094 | ETA 04:07:11
Time 01:28:12 | Step 26769 / 100000 | TPS 4.95466 | ETA 04:06:20
Time 01:28:22 | Step 26819 / 100000 | TPS 4.95234 | ETA 04:06:17
Time 01:28:33 | Step 26869 / 100000 | TPS 4.95138 | ETA 04:06:09
Time 01:28:43 | Step 26919 / 100000 | TPS 4.95157 | ETA 04:05:59
Time 01:28:53 | Step 26969 / 100000 | TPS 4.94341 | ETA 04:06:13
Time 01:29:03 | Step 27015 / 100000 | TPS 4.5839 | ETA 04:25:22
Time 01:29:13 | Step 27065 / 100000 | TPS 4.95927 | ETA 04:05:06
Time 01:29:23 | Step 27115 / 100000 | TPS 4.95914 | ETA 04:04:57
Time 01:29:33 | Step 27165 / 100000 | TPS 4.95473 | ETA 04:05:00
Time 01:29:43 | Step 27215 / 100000 | TPS 4.95657 | ETA 04:04:44
Time 01:29:53 | Step 27265 / 100000 | TPS 4.94721 | ETA 04:05:02
Time 01:30:03 | Step 27315 / 100000 | TPS 4.95845 | ETA 04:04:18
Time 01:30:13 | Step 27365 / 100000 | TPS 4.96148 | ETA 04:03:59
Time 01:30:23 | Step 27415 / 100000 | TPS 4.95293 | ETA 04:04:14
Time 01:30:34 | Step 27465 / 100000 | TPS 4.95314 | ETA 04:04:04
Time 01:30:44 | Step 27515 / 100000 | TPS 4.94932 | ETA 04:04:05
Time 01:30:54 | Step 27565 / 100000 | TPS 4.94938 | ETA 04:03:55
Time 01:31:04 | Step 27615 / 100000 | TPS 4.94395 | ETA 04:04:01
Time 01:31:14 | Step 27665 / 100000 | TPS 4.9612 | ETA 04:03:00
Time 01:31:24 | Step 27715 / 100000 | TPS 4.9584 | ETA 04:02:58
Time 01:31:34 | Step 27765 / 100000 | TPS 4.95941 | ETA 04:02:45
Time 01:31:44 | Step 27815 / 100000 | TPS 4.94914 | ETA 04:03:05
Time 01:31:54 | Step 27865 / 100000 | TPS 4.95575 | ETA 04:02:35
Time 01:32:04 | Step 27915 / 100000 | TPS 4.95476 | ETA 04:02:28
Time 01:32:14 | Step 27965 / 100000 | TPS 4.96378 | ETA 04:01:52
Time 01:32:24 | Step 28012 / 100000 | TPS 4.69347 | ETA 04:15:37
Time 01:32:35 | Step 28061 / 100000 | TPS 4.86848 | ETA 04:06:16
Time 01:32:45 | Step 28111 / 100000 | TPS 4.95499 | ETA 04:01:48
Time 01:32:55 | Step 28161 / 100000 | TPS 4.96484 | ETA 04:01:09
Time 01:33:05 | Step 28211 / 100000 | TPS 4.95571 | ETA 04:01:26
Time 01:33:15 | Step 28261 / 100000 | TPS 4.97736 | ETA 04:00:13
Time 01:33:25 | Step 28311 / 100000 | TPS 4.96557 | ETA 04:00:37
Time 01:33:35 | Step 28361 / 100000 | TPS 4.96341 | ETA 04:00:33
Time 01:33:45 | Step 28411 / 100000 | TPS 4.96877 | ETA 04:00:07
Time 01:33:55 | Step 28461 / 100000 | TPS 4.96805 | ETA 03:59:59
Time 01:34:05 | Step 28511 / 100000 | TPS 4.97053 | ETA 03:59:42
Time 01:34:15 | Step 28561 / 100000 | TPS 4.97976 | ETA 03:59:05
Time 01:34:25 | Step 28611 / 100000 | TPS 4.9772 | ETA 03:59:03
Time 01:34:35 | Step 28661 / 100000 | TPS 4.97473 | ETA 03:59:00
Time 01:34:45 | Step 28711 / 100000 | TPS 4.97379 | ETA 03:58:52
Time 01:34:55 | Step 28761 / 100000 | TPS 4.97262 | ETA 03:58:46
Time 01:35:05 | Step 28811 / 100000 | TPS 4.96969 | ETA 03:58:44
Time 01:35:16 | Step 28861 / 100000 | TPS 4.98752 | ETA 03:57:43
Time 01:35:26 | Step 28911 / 100000 | TPS 4.98213 | ETA 03:57:48
Time 01:35:36 | Step 28961 / 100000 | TPS 4.97299 | ETA 03:58:04
Time 01:35:46 | Step 29008 / 100000 | TPS 4.68813 | ETA 04:12:22
Time 01:35:56 | Step 29057 / 100000 | TPS 4.88298 | ETA 04:02:08
Time 01:36:06 | Step 29107 / 100000 | TPS 4.96556 | ETA 03:57:56
Time 01:36:16 | Step 29157 / 100000 | TPS 4.98088 | ETA 03:57:02
Time 01:36:26 | Step 29207 / 100000 | TPS 4.98718 | ETA 03:56:34
Time 01:36:36 | Step 29257 / 100000 | TPS 4.98563 | ETA 03:56:29
Time 01:36:46 | Step 29307 / 100000 | TPS 4.9811 | ETA 03:56:32
Time 01:36:56 | Step 29357 / 100000 | TPS 4.97684 | ETA 03:56:34
Time 01:37:06 | Step 29407 / 100000 | TPS 4.96982 | ETA 03:56:44
Time 01:37:16 | Step 29457 / 100000 | TPS 4.9939 | ETA 03:55:25
Time 01:37:26 | Step 29507 / 100000 | TPS 4.98528 | ETA 03:55:40
Time 01:37:36 | Step 29557 / 100000 | TPS 4.98294 | ETA 03:55:36
Time 01:37:46 | Step 29607 / 100000 | TPS 4.98624 | ETA 03:55:17
Time 01:37:56 | Step 29657 / 100000 | TPS 4.97857 | ETA 03:55:29
Time 01:38:06 | Step 29707 / 100000 | TPS 4.97868 | ETA 03:55:18
Time 01:38:16 | Step 29758 / 100000 | TPS 5.08961 | ETA 03:50:01
Time 01:38:26 | Step 29808 / 100000 | TPS 4.98814 | ETA 03:54:31
Time 01:38:36 | Step 29857 / 100000 | TPS 4.89943 | ETA 03:58:36
Time 01:38:46 | Step 29907 / 100000 | TPS 4.99448 | ETA 03:53:54
Time 01:38:56 | Step 29957 / 100000 | TPS 4.99812 | ETA 03:53:33
Time 01:39:07 | Step 30005 / 100000 | TPS 4.63494 | ETA 04:11:41
Time 01:39:17 | Step 30056 / 100000 | TPS 5.08938 | ETA 03:49:03
Time 01:39:27 | Step 30107 / 100000 | TPS 4.91926 | ETA 03:56:48
Time 01:39:37 | Step 30158 / 100000 | TPS 5.08903 | ETA 03:48:44
Time 01:39:47 | Step 30209 / 100000 | TPS 4.92135 | ETA 03:56:21
Time 01:39:57 | Step 30260 / 100000 | TPS 5.08617 | ETA 03:48:31
Time 01:40:08 | Step 30311 / 100000 | TPS 4.91905 | ETA 03:56:07
Time 01:40:18 | Step 30363 / 100000 | TPS 5.01467 | ETA 03:51:26
Time 01:40:28 | Step 30415 / 100000 | TPS 5.01739 | ETA 03:51:08
Time 01:40:38 | Step 30466 / 100000 | TPS 5.09859 | ETA 03:47:17
Time 01:40:49 | Step 30517 / 100000 | TPS 4.9284 | ETA 03:54:58
Time 01:40:59 | Step 30568 / 100000 | TPS 5.08949 | ETA 03:47:22
Time 01:41:09 | Step 30619 / 100000 | TPS 4.92754 | ETA 03:54:40
Time 01:41:20 | Step 30671 / 100000 | TPS 5.02301 | ETA 03:50:02
Time 01:41:30 | Step 30723 / 100000 | TPS 5.02081 | ETA 03:49:57
Time 01:41:40 | Step 30775 / 100000 | TPS 5.01734 | ETA 03:49:57
Time 01:41:50 | Step 30826 / 100000 | TPS 5.095 | ETA 03:46:16
Time 01:42:01 | Step 30877 / 100000 | TPS 4.92557 | ETA 03:53:53
Time 01:42:11 | Step 30928 / 100000 | TPS 5.09439 | ETA 03:45:58
Time 01:42:21 | Step 30979 / 100000 | TPS 4.94201 | ETA 03:52:46
Time 01:42:31 | Step 31027 / 100000 | TPS 4.66517 | ETA 04:06:24
Time 01:42:41 | Step 31078 / 100000 | TPS 5.08909 | ETA 03:45:43
Time 01:42:52 | Step 31129 / 100000 | TPS 4.926 | ETA 03:53:01
Time 01:43:02 | Step 31180 / 100000 | TPS 5.09437 | ETA 03:45:09
Time 01:43:12 | Step 31231 / 100000 | TPS 4.92783 | ETA 03:52:35
Time 01:43:22 | Step 31283 / 100000 | TPS 5.02366 | ETA 03:47:58
Time 01:43:33 | Step 31335 / 100000 | TPS 5.01818 | ETA 03:48:03
Time 01:43:43 | Step 31386 / 100000 | TPS 5.09837 | ETA 03:44:18
Time 01:43:53 | Step 31437 / 100000 | TPS 4.92814 | ETA 03:51:52
Time 01:44:03 | Step 31488 / 100000 | TPS 5.09244 | ETA 03:44:13
Time 01:44:13 | Step 31539 / 100000 | TPS 4.94496 | ETA 03:50:44
Time 01:44:24 | Step 31591 / 100000 | TPS 5.02319 | ETA 03:46:58
Time 01:44:34 | Step 31643 / 100000 | TPS 5.02809 | ETA 03:46:35
Time 01:44:44 | Step 31695 / 100000 | TPS 5.02199 | ETA 03:46:41
Time 01:44:55 | Step 31747 / 100000 | TPS 5.02388 | ETA 03:46:25
Time 01:45:05 | Step 31799 / 100000 | TPS 5.0224 | ETA 03:46:19
Time 01:45:15 | Step 31851 / 100000 | TPS 5.0308 | ETA 03:45:46
Time 01:45:26 | Step 31903 / 100000 | TPS 5.03765 | ETA 03:45:17
Time 01:45:36 | Step 31955 / 100000 | TPS 5.03231 | ETA 03:45:21
Time 01:45:46 | Step 32003 / 100000 | TPS 4.68201 | ETA 04:02:03
Time 01:45:57 | Step 32055 / 100000 | TPS 5.02561 | ETA 03:45:19
Time 01:46:07 | Step 32107 / 100000 | TPS 5.02559 | ETA 03:45:09
Time 01:46:17 | Step 32159 / 100000 | TPS 5.04063 | ETA 03:44:18
Time 01:46:28 | Step 32211 / 100000 | TPS 5.04257 | ETA 03:44:03
Time 01:46:38 | Step 32263 / 100000 | TPS 5.04221 | ETA 03:43:54
Time 01:46:48 | Step 32315 / 100000 | TPS 5.04085 | ETA 03:43:47
Time 01:46:59 | Step 32367 / 100000 | TPS 5.04347 | ETA 03:43:30
Time 01:47:09 | Step 32419 / 100000 | TPS 5.04573 | ETA 03:43:13
Time 01:47:19 | Step 32471 / 100000 | TPS 5.05756 | ETA 03:42:32
Time 01:47:30 | Step 32523 / 100000 | TPS 5.04771 | ETA 03:42:47
Time 01:47:40 | Step 32575 / 100000 | TPS 5.04071 | ETA 03:42:56
Time 01:47:50 | Step 32627 / 100000 | TPS 5.03497 | ETA 03:43:01
Time 01:48:00 | Step 32679 / 100000 | TPS 5.04418 | ETA 03:42:26
Time 01:48:11 | Step 32731 / 100000 | TPS 5.04326 | ETA 03:42:18
Time 01:48:21 | Step 32783 / 100000 | TPS 5.0501 | ETA 03:41:50
Time 01:48:31 | Step 32835 / 100000 | TPS 5.05563 | ETA 03:41:25
Time 01:48:42 | Step 32887 / 100000 | TPS 5.04098 | ETA 03:41:53
Time 01:48:52 | Step 32939 / 100000 | TPS 5.04389 | ETA 03:41:35
Time 01:49:02 | Step 32991 / 100000 | TPS 5.04273 | ETA 03:41:28
Time 01:49:13 | Step 33039 / 100000 | TPS 4.68652 | ETA 03:58:07
Time 01:49:23 | Step 33091 / 100000 | TPS 5.05048 | ETA 03:40:48
Time 01:49:33 | Step 33143 / 100000 | TPS 5.06207 | ETA 03:40:07
Time 01:49:43 | Step 33195 / 100000 | TPS 5.04688 | ETA 03:40:36
Time 01:49:54 | Step 33247 / 100000 | TPS 5.04907 | ETA 03:40:20
Time 01:50:04 | Step 33299 / 100000 | TPS 5.05232 | ETA 03:40:02
Time 01:50:14 | Step 33351 / 100000 | TPS 5.05724 | ETA 03:39:38
Time 01:50:25 | Step 33403 / 100000 | TPS 5.05111 | ETA 03:39:44
Time 01:50:35 | Step 33455 / 100000 | TPS 5.05563 | ETA 03:39:22
Time 01:50:45 | Step 33507 / 100000 | TPS 5.0561 | ETA 03:39:11
Time 01:50:55 | Step 33559 / 100000 | TPS 5.05349 | ETA 03:39:07
Time 01:51:06 | Step 33611 / 100000 | TPS 5.05145 | ETA 03:39:02
Time 01:51:16 | Step 33663 / 100000 | TPS 5.07447 | ETA 03:37:52
Time 01:51:26 | Step 33715 / 100000 | TPS 5.06879 | ETA 03:37:57
Time 01:51:37 | Step 33767 / 100000 | TPS 5.07353 | ETA 03:37:34
Time 01:51:47 | Step 33819 / 100000 | TPS 5.06966 | ETA 03:37:34
Time 01:51:57 | Step 33871 / 100000 | TPS 5.06679 | ETA 03:37:31
Time 01:52:07 | Step 33923 / 100000 | TPS 5.07731 | ETA 03:36:54
Time 01:52:17 | Step 33975 / 100000 | TPS 5.08679 | ETA 03:36:19
Time 01:52:28 | Step 34023 / 100000 | TPS 4.72724 | ETA 03:52:36
Time 01:52:38 | Step 34075 / 100000 | TPS 5.08111 | ETA 03:36:14
Time 01:52:48 | Step 34127 / 100000 | TPS 5.07942 | ETA 03:36:08
Time 01:52:58 | Step 34179 / 100000 | TPS 5.08251 | ETA 03:35:50
Time 01:53:09 | Step 34231 / 100000 | TPS 5.08396 | ETA 03:35:36
Time 01:53:19 | Step 34283 / 100000 | TPS 5.08985 | ETA 03:35:11
Time 01:53:29 | Step 34335 / 100000 | TPS 5.07396 | ETA 03:35:41
Time 01:53:39 | Step 34387 / 100000 | TPS 5.08206 | ETA 03:35:10
Time 01:53:49 | Step 34439 / 100000 | TPS 5.08652 | ETA 03:34:49
Time 01:54:00 | Step 34491 / 100000 | TPS 5.08358 | ETA 03:34:46
Time 01:54:10 | Step 34543 / 100000 | TPS 5.08951 | ETA 03:34:21
Time 01:54:20 | Step 34595 / 100000 | TPS 5.09236 | ETA 03:34:03
Time 01:54:30 | Step 34647 / 100000 | TPS 5.08554 | ETA 03:34:10
Time 01:54:41 | Step 34699 / 100000 | TPS 5.07958 | ETA 03:34:15
Time 01:54:51 | Step 34751 / 100000 | TPS 5.08421 | ETA 03:33:53
Time 01:55:01 | Step 34803 / 100000 | TPS 5.0776 | ETA 03:34:00
Time 01:55:11 | Step 34855 / 100000 | TPS 5.09985 | ETA 03:32:53
Time 01:55:21 | Step 34907 / 100000 | TPS 5.09018 | ETA 03:33:07
Time 01:55:32 | Step 34959 / 100000 | TPS 5.08606 | ETA 03:33:08
Time 01:55:42 | Step 35007 / 100000 | TPS 4.72428 | ETA 03:49:17
Time 01:55:52 | Step 35059 / 100000 | TPS 5.08425 | ETA 03:32:52
Time 01:56:02 | Step 35111 / 100000 | TPS 5.08024 | ETA 03:32:52
Time 01:56:13 | Step 35163 / 100000 | TPS 5.08659 | ETA 03:32:26
Time 01:56:23 | Step 35215 / 100000 | TPS 5.09008 | ETA 03:32:07
Time 01:56:33 | Step 35267 / 100000 | TPS 5.09092 | ETA 03:31:55
Time 01:56:43 | Step 35319 / 100000 | TPS 5.08608 | ETA 03:31:57
Time 01:56:53 | Step 35371 / 100000 | TPS 5.08151 | ETA 03:31:58
Time 01:57:04 | Step 35423 / 100000 | TPS 5.08547 | ETA 03:31:38
Time 01:57:14 | Step 35475 / 100000 | TPS 5.10517 | ETA 03:30:39
Time 01:57:24 | Step 35527 / 100000 | TPS 5.09698 | ETA 03:30:49
Time 01:57:34 | Step 35579 / 100000 | TPS 5.10358 | ETA 03:30:22
Time 01:57:44 | Step 35631 / 100000 | TPS 5.09911 | ETA 03:30:23
Time 01:57:55 | Step 35683 / 100000 | TPS 5.09943 | ETA 03:30:12
Time 01:58:05 | Step 35735 / 100000 | TPS 5.10871 | ETA 03:29:39
Time 01:58:15 | Step 35787 / 100000 | TPS 5.11605 | ETA 03:29:11
Time 01:58:25 | Step 35839 / 100000 | TPS 5.11359 | ETA 03:29:07
Time 01:58:35 | Step 35891 / 100000 | TPS 5.11896 | ETA 03:28:43
Time 01:58:45 | Step 35943 / 100000 | TPS 5.11409 | ETA 03:28:45
Time 01:58:56 | Step 35995 / 100000 | TPS 5.10995 | ETA 03:28:45
Time 01:59:06 | Step 36043 / 100000 | TPS 4.74882 | ETA 03:44:27
Time 01:59:16 | Step 36095 / 100000 | TPS 5.12382 | ETA 03:27:52
Time 01:59:26 | Step 36147 / 100000 | TPS 5.11101 | ETA 03:28:13
Time 01:59:36 | Step 36199 / 100000 | TPS 5.11514 | ETA 03:27:52
Time 01:59:46 | Step 36251 / 100000 | TPS 5.1157 | ETA 03:27:41
Time 01:59:57 | Step 36303 / 100000 | TPS 5.10633 | ETA 03:27:54
Traceback (most recent call last):
  File "Equilibrium_T_5_8.py", line 109, in <module>
    hoomd.run(steps)
  File "/usr/local/lib/python3.5/dist-packages/hoomd/__init__.py", line 194, in run
    context.current.system.run(int(tsteps), callback_period, callback, limit_hours, int(limit_multiple));
RuntimeError: Error updating neighborlist
