[33mWARNING: Skipping user bind, non existent bind point (file) in container: '/usr/bin/nvidia-smi'
[0m[33mWARNING: Skipping user bind, non existent bind point (file) in container: '/usr/bin/nvidia-debugdump'
[0m[33mWARNING: Skipping user bind, non existent bind point (file) in container: '/usr/bin/nvidia-persistenced'
[0m[33mWARNING: Skipping user bind, non existent bind point (file) in container: '/usr/bin/nvidia-cuda-mps-control'
[0m[33mWARNING: Skipping user bind, non existent bind point (file) in container: '/usr/bin/nvidia-cuda-mps-server'
[0m**ERROR**: nlist.tree(): Particle 22971 is out of bounds (x: -3387.44, y: 44602.3, z: 32683.4, fx: -0.188704, fy: 9.56815, fz:7.1449)
HOOMD-blue 2.3.5 CUDA (8.0) DOUBLE HPMC_MIXED TBB SSE SSE2 
Compiled: 10/08/18
Copyright 2009-2018 The Regents of the University of Michigan.
-----
You are using HOOMD-blue. Please cite the following:
* J A Anderson, C D Lorenz, and A Travesset. "General purpose molecular dynamics
  simulations fully implemented on graphics processing units", Journal of
  Computational Physics 227 (2008) 5342--5359
* J Glaser, T D Nguyen, J A Anderson, P Liu, F Spiga, J A Millan, D C Morse, and
  S C Glotzer. "Strong scaling of general-purpose molecular dynamics simulations
  on GPUs", Computer Physics Communications 192 (2015) 97--107
-----
notice(2): This system is not compute exclusive, using local rank to select GPUs
HOOMD-blue is running on the following GPU(s):
 [0]            Tesla K20m  13 SM_3.5 @ 0.706 GHz, 4743 MiB DRAM
Equilibrium_T_5_0.py:029  |  system = hoomd.init.read_snapshot(snap)
notice(2): Group "all" created containing 64256 particles
Equilibrium_T_5_0.py:033  |  rigid = hoomd.md.constrain.rigid();
notice(2): constrain.rigid(): Creating 64000 rigid bodies (adding 512000 particles)
Equilibrium_T_5_0.py:045  |  nl = hoomd.md.nlist.tree();
-----
You are using tree neighbor lists. Please cite the following:
* M P Howard, J A Anderson, A Nikoubashman, S C Glotzer, and A Z
  Panagiotopoulos. "Efficient neighbor list calculation for molecular simulation
  of colloidal systems using graphics processing units", Computer Physics
  Communications 203 (2016) 45--52
-----
Equilibrium_T_5_0.py:047  |  lj = hoomd.md.pair.lj(r_cut = 3.5, nlist = nl)
Equilibrium_T_5_0.py:048  |  lj.set_params(mode = 'shift')
Equilibrium_T_5_0.py:052  |  lj.pair_coeff.set('NP','NP', epsilon = 1.0, sigma = 5.0);
Equilibrium_T_5_0.py:053  |  lj.pair_coeff.set('M' ,'M' , epsilon = 1.0, sigma = 1.0);
Equilibrium_T_5_0.py:054  |  lj.pair_coeff.set('A' ,'A' , epsilon = 1.0, sigma = 1.0);
Equilibrium_T_5_0.py:055  |  lj.pair_coeff.set('M' ,'A' , epsilon = 1.0, sigma = 1.0);
Equilibrium_T_5_0.py:056  |  lj.pair_coeff.set('NP','M' , epsilon = 1.0, sigma = 3.0);
Equilibrium_T_5_0.py:057  |  lj.pair_coeff.set('NP','A' , epsilon = 1.0, sigma = 3.0);
Equilibrium_T_5_0.py:061  |  hoomd.md.integrate.mode_standard(dt = 0.005);
Equilibrium_T_5_0.py:065  |  nanoparticles = hoomd.group.type(name = 'Nano_Particles', type = 'NP');
notice(2): Group "Nano_Particles" created containing 256 particles
Equilibrium_T_5_0.py:066  |  mesogens = hoomd.group.rigid_center();
notice(2): Group "rigid_center" created containing 64000 particles
notice(2): Group "NP_Mes" created containing 64256 particles
Equilibrium_T_5_0.py:073  |  npt = hoomd.md.integrate.npt(group = groupNP_mes, kT = t_max, tau = 12.5, tauP = 12.5, P = p_max);
Equilibrium_T_5_0.py:081  |  log = hoomd.analyze.log(filename = log_file,
                         quantities = ['num_particles',
                                     'ndof',
                                     'translational_ndof',
                                     'rotational_ndof',
                                     'potential_energy',
                                     'kinetic_energy',
                                     'translational_kinetic_energy',
                                     'rotational_kinetic_energy',
                                     'temperature',
                                     'pressure',
                                      'volume'],
                         period = 1e3,
                         overwrite = True);
Equilibrium_T_5_0.py:097  |                 group = hoomd.group.all(),
Equilibrium_T_5_0.py:095  |  gsd = hoomd.dump.gsd(gsd_file,
               period = 1e3,
               group = hoomd.group.all(),
               overwrite = True); 
Equilibrium_T_5_0.py:099  |  meso_gsd = hoomd.dump.gsd(meso_gsd_file,
               period = 1e3,
               group = mesogens,
               overwrite = True); 
Equilibrium_T_5_0.py:108  |  hoomd.run(steps)
notice(2): -- Neighborlist exclusion statistics -- :
notice(2): Particles with 0 exclusions             : 576256
notice(2): Neighbors included by diameter          : no
notice(2): Neighbors excluded when in the same body: yes
** starting run **
Time 00:00:11 | Step 23 / 100000 | TPS 2.25976 | ETA 12:17:22
Time 00:00:21 | Step 70 / 100000 | TPS 4.53875 | ETA 06:06:57
Time 00:00:31 | Step 120 / 100000 | TPS 4.98478 | ETA 05:33:57
Time 00:00:41 | Step 167 / 100000 | TPS 4.64103 | ETA 05:58:30
Time 00:00:52 | Step 211 / 100000 | TPS 4.16806 | ETA 06:39:01
Time 00:01:02 | Step 244 / 100000 | TPS 3.27155 | ETA 08:28:11
Time 00:01:12 | Step 280 / 100000 | TPS 3.59612 | ETA 07:42:09
Time 00:01:22 | Step 315 / 100000 | TPS 3.42269 | ETA 08:05:24
Time 00:01:32 | Step 354 / 100000 | TPS 3.89029 | ETA 07:06:54
Time 00:01:42 | Step 393 / 100000 | TPS 3.78355 | ETA 07:18:46
Time 00:01:53 | Step 433 / 100000 | TPS 3.92203 | ETA 07:03:06
Time 00:02:03 | Step 475 / 100000 | TPS 4.08319 | ETA 06:46:14
Time 00:02:13 | Step 517 / 100000 | TPS 4.09131 | ETA 06:45:15
Time 00:02:23 | Step 559 / 100000 | TPS 4.14831 | ETA 06:39:31
Time 00:02:33 | Step 599 / 100000 | TPS 3.93899 | ETA 07:00:35
Time 00:02:44 | Step 641 / 100000 | TPS 4.12415 | ETA 06:41:32
Time 00:02:54 | Step 683 / 100000 | TPS 4.18732 | ETA 06:35:18
Time 00:03:04 | Step 725 / 100000 | TPS 4.08657 | ETA 06:44:52
Time 00:03:14 | Step 769 / 100000 | TPS 4.22542 | ETA 06:31:24
Time 00:03:25 | Step 811 / 100000 | TPS 4.13527 | ETA 06:39:46
Time 00:03:35 | Step 853 / 100000 | TPS 4.17812 | ETA 06:35:30
Time 00:03:45 | Step 896 / 100000 | TPS 4.28813 | ETA 06:25:11
Time 00:03:55 | Step 937 / 100000 | TPS 4.06727 | ETA 06:45:56
Time 00:04:05 | Step 981 / 100000 | TPS 4.38086 | ETA 06:16:42
Time 00:04:15 | Step 1023 / 100000 | TPS 4.17669 | ETA 06:34:57
Time 00:04:25 | Step 1069 / 100000 | TPS 4.49997 | ETA 06:06:24
Time 00:04:35 | Step 1115 / 100000 | TPS 4.50245 | ETA 06:06:02
Time 00:04:45 | Step 1161 / 100000 | TPS 4.50302 | ETA 06:05:49
Time 00:04:56 | Step 1207 / 100000 | TPS 4.5004 | ETA 06:05:52
Time 00:05:06 | Step 1253 / 100000 | TPS 4.52491 | ETA 06:03:42
Time 00:05:16 | Step 1299 / 100000 | TPS 4.52391 | ETA 06:03:37
Time 00:05:26 | Step 1345 / 100000 | TPS 4.52788 | ETA 06:03:08
Time 00:05:36 | Step 1391 / 100000 | TPS 4.52811 | ETA 06:02:57
Time 00:05:46 | Step 1437 / 100000 | TPS 4.5179 | ETA 06:03:36
Time 00:05:57 | Step 1483 / 100000 | TPS 4.5126 | ETA 06:03:51
Time 00:06:07 | Step 1527 / 100000 | TPS 4.3446 | ETA 06:17:45
Time 00:06:17 | Step 1573 / 100000 | TPS 4.50829 | ETA 06:03:52
Time 00:06:27 | Step 1619 / 100000 | TPS 4.5013 | ETA 06:04:16
Time 00:06:37 | Step 1665 / 100000 | TPS 4.49213 | ETA 06:04:50
Time 00:06:48 | Step 1711 / 100000 | TPS 4.48808 | ETA 06:05:00
Time 00:06:58 | Step 1757 / 100000 | TPS 4.47674 | ETA 06:05:45
Time 00:07:08 | Step 1803 / 100000 | TPS 4.4628 | ETA 06:06:43
Time 00:07:19 | Step 1849 / 100000 | TPS 4.47494 | ETA 06:05:33
Time 00:07:29 | Step 1895 / 100000 | TPS 4.46874 | ETA 06:05:53
Time 00:07:39 | Step 1941 / 100000 | TPS 4.46332 | ETA 06:06:09
Time 00:07:49 | Step 1987 / 100000 | TPS 4.46164 | ETA 06:06:07
Time 00:08:00 | Step 2029 / 100000 | TPS 4.1631 | ETA 06:32:13
Time 00:08:10 | Step 2075 / 100000 | TPS 4.46837 | ETA 06:05:15
Time 00:08:20 | Step 2121 / 100000 | TPS 4.47382 | ETA 06:04:38
Time 00:08:30 | Step 2167 / 100000 | TPS 4.48893 | ETA 06:03:14
Time 00:08:41 | Step 2213 / 100000 | TPS 4.49072 | ETA 06:02:55
Time 00:08:51 | Step 2259 / 100000 | TPS 4.49501 | ETA 06:02:24
Time 00:09:01 | Step 2305 / 100000 | TPS 4.50012 | ETA 06:01:49
Time 00:09:11 | Step 2351 / 100000 | TPS 4.50571 | ETA 06:01:12
Time 00:09:22 | Step 2397 / 100000 | TPS 4.50808 | ETA 06:00:50
Time 00:09:32 | Step 2443 / 100000 | TPS 4.52624 | ETA 05:59:13
Time 00:09:42 | Step 2489 / 100000 | TPS 4.53858 | ETA 05:58:04
Time 00:09:52 | Step 2535 / 100000 | TPS 4.53959 | ETA 05:57:50
Time 00:10:02 | Step 2581 / 100000 | TPS 4.54156 | ETA 05:57:30
Time 00:10:12 | Step 2627 / 100000 | TPS 4.54391 | ETA 05:57:09
Time 00:10:22 | Step 2673 / 100000 | TPS 4.54086 | ETA 05:57:13
Time 00:10:32 | Step 2719 / 100000 | TPS 4.54578 | ETA 05:56:40
Time 00:10:43 | Step 2765 / 100000 | TPS 4.54374 | ETA 05:56:39
Time 00:10:53 | Step 2811 / 100000 | TPS 4.54531 | ETA 05:56:22
Time 00:11:03 | Step 2857 / 100000 | TPS 4.52895 | ETA 05:57:29
Time 00:11:13 | Step 2903 / 100000 | TPS 4.53141 | ETA 05:57:07
Time 00:11:23 | Step 2949 / 100000 | TPS 4.52221 | ETA 05:57:40
Time 00:11:33 | Step 2995 / 100000 | TPS 4.51738 | ETA 05:57:53
Time 00:11:43 | Step 3038 / 100000 | TPS 4.29361 | ETA 06:16:22
Time 00:11:54 | Step 3083 / 100000 | TPS 4.42943 | ETA 06:04:40
Time 00:12:04 | Step 3129 / 100000 | TPS 4.50755 | ETA 05:58:10
Time 00:12:14 | Step 3175 / 100000 | TPS 4.50611 | ETA 05:58:07
Time 00:12:24 | Step 3221 / 100000 | TPS 4.49943 | ETA 05:58:29
Time 00:12:34 | Step 3267 / 100000 | TPS 4.4989 | ETA 05:58:21
Time 00:12:45 | Step 3313 / 100000 | TPS 4.49202 | ETA 05:58:44
Time 00:12:55 | Step 3359 / 100000 | TPS 4.50876 | ETA 05:57:14
Time 00:13:05 | Step 3405 / 100000 | TPS 4.50654 | ETA 05:57:14
Time 00:13:15 | Step 3451 / 100000 | TPS 4.50695 | ETA 05:57:02
Time 00:13:25 | Step 3497 / 100000 | TPS 4.51327 | ETA 05:56:22
Time 00:13:36 | Step 3543 / 100000 | TPS 4.51685 | ETA 05:55:54
Time 00:13:46 | Step 3589 / 100000 | TPS 4.52086 | ETA 05:55:25
Time 00:13:56 | Step 3635 / 100000 | TPS 4.53222 | ETA 05:54:22
Time 00:14:06 | Step 3681 / 100000 | TPS 4.54123 | ETA 05:53:29
Time 00:14:16 | Step 3727 / 100000 | TPS 4.54393 | ETA 05:53:07
Time 00:14:26 | Step 3773 / 100000 | TPS 4.54894 | ETA 05:52:33
Time 00:14:36 | Step 3819 / 100000 | TPS 4.55225 | ETA 05:52:08
Time 00:14:47 | Step 3865 / 100000 | TPS 4.5584 | ETA 05:51:29
Time 00:14:57 | Step 3911 / 100000 | TPS 4.55488 | ETA 05:51:35
Time 00:15:07 | Step 3957 / 100000 | TPS 4.56183 | ETA 05:50:53
Time 00:15:17 | Step 4001 / 100000 | TPS 4.25655 | ETA 06:15:53
Time 00:15:27 | Step 4047 / 100000 | TPS 4.56655 | ETA 05:50:12
Time 00:15:37 | Step 4093 / 100000 | TPS 4.55759 | ETA 05:50:43
Time 00:15:47 | Step 4139 / 100000 | TPS 4.55565 | ETA 05:50:42
Time 00:15:57 | Step 4185 / 100000 | TPS 4.55105 | ETA 05:50:53
Time 00:16:08 | Step 4231 / 100000 | TPS 4.5501 | ETA 05:50:47
Time 00:16:18 | Step 4277 / 100000 | TPS 4.55594 | ETA 05:50:10
Time 00:16:28 | Step 4323 / 100000 | TPS 4.54852 | ETA 05:50:34
Time 00:16:38 | Step 4369 / 100000 | TPS 4.54279 | ETA 05:50:51
Time 00:16:48 | Step 4415 / 100000 | TPS 4.53414 | ETA 05:51:21
Time 00:16:58 | Step 4461 / 100000 | TPS 4.53865 | ETA 05:50:50
Time 00:17:08 | Step 4507 / 100000 | TPS 4.52849 | ETA 05:51:27
Time 00:17:18 | Step 4553 / 100000 | TPS 4.53632 | ETA 05:50:40
Time 00:17:29 | Step 4599 / 100000 | TPS 4.5296 | ETA 05:51:01
Time 00:17:39 | Step 4645 / 100000 | TPS 4.52965 | ETA 05:50:51
Time 00:17:49 | Step 4691 / 100000 | TPS 4.53153 | ETA 05:50:32
Time 00:17:59 | Step 4737 / 100000 | TPS 4.5289 | ETA 05:50:34
Time 00:18:09 | Step 4783 / 100000 | TPS 4.53387 | ETA 05:50:01
Time 00:18:19 | Step 4829 / 100000 | TPS 4.53089 | ETA 05:50:04
Time 00:18:29 | Step 4875 / 100000 | TPS 4.54523 | ETA 05:48:48
Time 00:18:40 | Step 4921 / 100000 | TPS 4.54282 | ETA 05:48:49
Time 00:18:50 | Step 4967 / 100000 | TPS 4.54352 | ETA 05:48:36
Time 00:19:00 | Step 5011 / 100000 | TPS 4.24647 | ETA 06:12:48
Time 00:19:10 | Step 5057 / 100000 | TPS 4.55501 | ETA 05:47:23
Time 00:19:20 | Step 5103 / 100000 | TPS 4.55217 | ETA 05:47:26
Time 00:19:30 | Step 5149 / 100000 | TPS 4.5726 | ETA 05:45:43
Time 00:19:40 | Step 5195 / 100000 | TPS 4.56746 | ETA 05:45:56
Time 00:19:50 | Step 5241 / 100000 | TPS 4.57268 | ETA 05:45:22
Time 00:20:01 | Step 5287 / 100000 | TPS 4.56922 | ETA 05:45:28
Time 00:20:11 | Step 5333 / 100000 | TPS 4.57293 | ETA 05:45:01
Time 00:20:21 | Step 5379 / 100000 | TPS 4.57583 | ETA 05:44:38
Time 00:20:31 | Step 5425 / 100000 | TPS 4.57449 | ETA 05:44:34
Time 00:20:41 | Step 5471 / 100000 | TPS 4.57977 | ETA 05:44:00
Time 00:20:51 | Step 5517 / 100000 | TPS 4.57708 | ETA 05:44:02
Time 00:21:01 | Step 5563 / 100000 | TPS 4.5721 | ETA 05:44:15
Time 00:21:11 | Step 5609 / 100000 | TPS 4.56649 | ETA 05:44:30
Time 00:21:21 | Step 5655 / 100000 | TPS 4.55543 | ETA 05:45:10
Time 00:21:31 | Step 5701 / 100000 | TPS 4.54919 | ETA 05:45:28
Time 00:21:41 | Step 5747 / 100000 | TPS 4.57167 | ETA 05:43:36
Time 00:21:51 | Step 5793 / 100000 | TPS 4.55384 | ETA 05:44:47
Time 00:22:01 | Step 5839 / 100000 | TPS 4.55555 | ETA 05:44:29
Time 00:22:12 | Step 5885 / 100000 | TPS 4.5474 | ETA 05:44:56
Time 00:22:22 | Step 5931 / 100000 | TPS 4.54494 | ETA 05:44:57
Time 00:22:32 | Step 5977 / 100000 | TPS 4.5346 | ETA 05:45:34
Time 00:22:42 | Step 6021 / 100000 | TPS 4.24671 | ETA 06:08:49
Time 00:22:52 | Step 6067 / 100000 | TPS 4.55627 | ETA 05:43:36
Time 00:23:02 | Step 6113 / 100000 | TPS 4.54555 | ETA 05:44:14
Time 00:23:12 | Step 6160 / 100000 | TPS 4.64232 | ETA 05:36:54
Time 00:23:23 | Step 6206 / 100000 | TPS 4.55799 | ETA 05:42:57
Time 00:23:33 | Step 6252 / 100000 | TPS 4.55312 | ETA 05:43:09
Time 00:23:43 | Step 6298 / 100000 | TPS 4.55679 | ETA 05:42:43
Time 00:23:53 | Step 6343 / 100000 | TPS 4.48868 | ETA 05:47:45
Time 00:24:03 | Step 6389 / 100000 | TPS 4.5781 | ETA 05:40:47
Time 00:24:13 | Step 6435 / 100000 | TPS 4.57907 | ETA 05:40:33
Time 00:24:23 | Step 6481 / 100000 | TPS 4.57745 | ETA 05:40:30
Time 00:24:33 | Step 6527 / 100000 | TPS 4.57866 | ETA 05:40:14
Time 00:24:43 | Step 6573 / 100000 | TPS 4.57905 | ETA 05:40:03
Time 00:24:53 | Step 6619 / 100000 | TPS 4.58252 | ETA 05:39:37
Time 00:25:03 | Step 6665 / 100000 | TPS 4.58781 | ETA 05:39:04
Time 00:25:13 | Step 6711 / 100000 | TPS 4.58232 | ETA 05:39:18
Time 00:25:23 | Step 6757 / 100000 | TPS 4.58662 | ETA 05:38:49
Time 00:25:33 | Step 6803 / 100000 | TPS 4.58897 | ETA 05:38:28
Time 00:25:43 | Step 6849 / 100000 | TPS 4.57975 | ETA 05:38:59
Time 00:25:53 | Step 6895 / 100000 | TPS 4.58351 | ETA 05:38:33
Time 00:26:03 | Step 6941 / 100000 | TPS 4.58243 | ETA 05:38:27
Time 00:26:13 | Step 6987 / 100000 | TPS 4.57955 | ETA 05:38:30
Time 00:26:24 | Step 7031 / 100000 | TPS 4.27143 | ETA 06:02:45
Time 00:26:34 | Step 7077 / 100000 | TPS 4.57362 | ETA 05:38:37
Time 00:26:44 | Step 7123 / 100000 | TPS 4.5572 | ETA 05:39:40
Time 00:26:54 | Step 7169 / 100000 | TPS 4.5606 | ETA 05:39:14
Time 00:27:04 | Step 7215 / 100000 | TPS 4.55774 | ETA 05:39:17
Time 00:27:14 | Step 7261 / 100000 | TPS 4.567 | ETA 05:38:26
Time 00:27:24 | Step 7307 / 100000 | TPS 4.55685 | ETA 05:39:01
Time 00:27:34 | Step 7353 / 100000 | TPS 4.54892 | ETA 05:39:26
Time 00:27:44 | Step 7399 / 100000 | TPS 4.55203 | ETA 05:39:02
Time 00:27:54 | Step 7445 / 100000 | TPS 4.55929 | ETA 05:38:20
Time 00:28:05 | Step 7491 / 100000 | TPS 4.55012 | ETA 05:38:51
Time 00:28:15 | Step 7537 / 100000 | TPS 4.56094 | ETA 05:37:52
Time 00:28:25 | Step 7583 / 100000 | TPS 4.57509 | ETA 05:36:40
Time 00:28:35 | Step 7629 / 100000 | TPS 4.56519 | ETA 05:37:13
Time 00:28:45 | Step 7675 / 100000 | TPS 4.5699 | ETA 05:36:42
Time 00:28:55 | Step 7721 / 100000 | TPS 4.57362 | ETA 05:36:16
Time 00:29:05 | Step 7767 / 100000 | TPS 4.56716 | ETA 05:36:34
Time 00:29:15 | Step 7813 / 100000 | TPS 4.57362 | ETA 05:35:56
Time 00:29:25 | Step 7859 / 100000 | TPS 4.58551 | ETA 05:34:53
Time 00:29:35 | Step 7905 / 100000 | TPS 4.58682 | ETA 05:34:38
Time 00:29:45 | Step 7951 / 100000 | TPS 4.57206 | ETA 05:35:32
Time 00:29:55 | Step 7997 / 100000 | TPS 4.57459 | ETA 05:35:11
Time 00:30:06 | Step 8041 / 100000 | TPS 4.27045 | ETA 05:58:53
Time 00:30:16 | Step 8087 / 100000 | TPS 4.57033 | ETA 05:35:10
Time 00:30:26 | Step 8133 / 100000 | TPS 4.57433 | ETA 05:34:43
Time 00:30:36 | Step 8179 / 100000 | TPS 4.57349 | ETA 05:34:36
Time 00:30:46 | Step 8225 / 100000 | TPS 4.57792 | ETA 05:34:07
Time 00:30:56 | Step 8271 / 100000 | TPS 4.57295 | ETA 05:34:19
Time 00:31:06 | Step 8317 / 100000 | TPS 4.56673 | ETA 05:34:36
Time 00:31:16 | Step 8363 / 100000 | TPS 4.5688 | ETA 05:34:17
Time 00:31:26 | Step 8409 / 100000 | TPS 4.55024 | ETA 05:35:28
Time 00:31:36 | Step 8455 / 100000 | TPS 4.56115 | ETA 05:34:30
Time 00:31:46 | Step 8501 / 100000 | TPS 4.56035 | ETA 05:34:24
Time 00:31:56 | Step 8547 / 100000 | TPS 4.55503 | ETA 05:34:37
Time 00:32:06 | Step 8593 / 100000 | TPS 4.55016 | ETA 05:34:48
Time 00:32:17 | Step 8639 / 100000 | TPS 4.55148 | ETA 05:34:32
Time 00:32:27 | Step 8685 / 100000 | TPS 4.5451 | ETA 05:34:50
Time 00:32:37 | Step 8731 / 100000 | TPS 4.54738 | ETA 05:34:30
Time 00:32:47 | Step 8777 / 100000 | TPS 4.558 | ETA 05:33:33
Time 00:32:57 | Step 8823 / 100000 | TPS 4.55961 | ETA 05:33:16
Time 00:33:07 | Step 8869 / 100000 | TPS 4.55456 | ETA 05:33:28
Time 00:33:17 | Step 8915 / 100000 | TPS 4.55591 | ETA 05:33:12
Time 00:33:27 | Step 8961 / 100000 | TPS 4.55399 | ETA 05:33:11
Time 00:33:38 | Step 9005 / 100000 | TPS 4.243 | ETA 05:57:25
Time 00:33:48 | Step 9051 / 100000 | TPS 4.56649 | ETA 05:31:56
Time 00:33:58 | Step 9097 / 100000 | TPS 4.56316 | ETA 05:32:01
Time 00:34:08 | Step 9143 / 100000 | TPS 4.57345 | ETA 05:31:06
Time 00:34:18 | Step 9189 / 100000 | TPS 4.5677 | ETA 05:31:21
Time 00:34:28 | Step 9235 / 100000 | TPS 4.57185 | ETA 05:30:53
Time 00:34:38 | Step 9281 / 100000 | TPS 4.57027 | ETA 05:30:49
Time 00:34:48 | Step 9327 / 100000 | TPS 4.56987 | ETA 05:30:41
Time 00:34:58 | Step 9373 / 100000 | TPS 4.57469 | ETA 05:30:10
Time 00:35:08 | Step 9418 / 100000 | TPS 4.48917 | ETA 05:36:17
Time 00:35:18 | Step 9463 / 100000 | TPS 4.47853 | ETA 05:36:55
Time 00:35:28 | Step 9509 / 100000 | TPS 4.56493 | ETA 05:30:23
Time 00:35:38 | Step 9555 / 100000 | TPS 4.56043 | ETA 05:30:32
Time 00:35:48 | Step 9601 / 100000 | TPS 4.55885 | ETA 05:30:29
Time 00:35:59 | Step 9647 / 100000 | TPS 4.57163 | ETA 05:29:23
Time 00:36:09 | Step 9693 / 100000 | TPS 4.56579 | ETA 05:29:39
Time 00:36:19 | Step 9739 / 100000 | TPS 4.55909 | ETA 05:29:58
Time 00:36:29 | Step 9785 / 100000 | TPS 4.55665 | ETA 05:29:58
Time 00:36:39 | Step 9831 / 100000 | TPS 4.54723 | ETA 05:30:29
Time 00:36:49 | Step 9877 / 100000 | TPS 4.54322 | ETA 05:30:36
Time 00:36:59 | Step 9923 / 100000 | TPS 4.54282 | ETA 05:30:28
Time 00:37:09 | Step 9969 / 100000 | TPS 4.55257 | ETA 05:29:35
Time 00:37:20 | Step 10013 / 100000 | TPS 4.23692 | ETA 05:53:58
Time 00:37:30 | Step 10060 / 100000 | TPS 4.62507 | ETA 05:24:06
Time 00:37:40 | Step 10106 / 100000 | TPS 4.53928 | ETA 05:30:03
Time 00:37:50 | Step 10152 / 100000 | TPS 4.53871 | ETA 05:29:55
Time 00:38:00 | Step 10198 / 100000 | TPS 4.53012 | ETA 05:30:23
Time 00:38:10 | Step 10243 / 100000 | TPS 4.45015 | ETA 05:36:09
Time 00:38:20 | Step 10289 / 100000 | TPS 4.54451 | ETA 05:29:00
Time 00:38:31 | Step 10335 / 100000 | TPS 4.54951 | ETA 05:28:28
Time 00:38:41 | Step 10381 / 100000 | TPS 4.549 | ETA 05:28:20
Time 00:38:51 | Step 10427 / 100000 | TPS 4.54766 | ETA 05:28:16
Time 00:39:01 | Step 10473 / 100000 | TPS 4.54206 | ETA 05:28:30
Time 00:39:11 | Step 10519 / 100000 | TPS 4.54356 | ETA 05:28:14
Time 00:39:21 | Step 10565 / 100000 | TPS 4.55081 | ETA 05:27:32
Time 00:39:31 | Step 10611 / 100000 | TPS 4.55315 | ETA 05:27:12
Time 00:39:41 | Step 10657 / 100000 | TPS 4.55417 | ETA 05:26:57
Time 00:39:51 | Step 10703 / 100000 | TPS 4.55302 | ETA 05:26:52
Time 00:40:02 | Step 10749 / 100000 | TPS 4.54885 | ETA 05:27:00
Time 00:40:12 | Step 10795 / 100000 | TPS 4.54742 | ETA 05:26:56
Time 00:40:22 | Step 10841 / 100000 | TPS 4.54458 | ETA 05:26:58
Time 00:40:32 | Step 10887 / 100000 | TPS 4.55469 | ETA 05:26:05
Time 00:40:42 | Step 10933 / 100000 | TPS 4.54981 | ETA 05:26:15
Time 00:40:52 | Step 10979 / 100000 | TPS 4.54455 | ETA 05:26:28
Time 00:41:03 | Step 11023 / 100000 | TPS 4.23845 | ETA 05:49:52
Time 00:41:13 | Step 11069 / 100000 | TPS 4.54058 | ETA 05:26:25
Time 00:41:23 | Step 11115 / 100000 | TPS 4.53428 | ETA 05:26:42
Time 00:41:33 | Step 11161 / 100000 | TPS 4.54364 | ETA 05:25:52
Time 00:41:43 | Step 11207 / 100000 | TPS 4.53986 | ETA 05:25:58
Time 00:41:53 | Step 11253 / 100000 | TPS 4.52989 | ETA 05:26:31
Time 00:42:03 | Step 11299 / 100000 | TPS 4.53554 | ETA 05:25:56
Time 00:42:14 | Step 11345 / 100000 | TPS 4.5316 | ETA 05:26:03
Time 00:42:24 | Step 11391 / 100000 | TPS 4.52399 | ETA 05:26:26
Time 00:42:34 | Step 11437 / 100000 | TPS 4.52813 | ETA 05:25:58
Time 00:42:44 | Step 11483 / 100000 | TPS 4.53304 | ETA 05:25:27
Time 00:42:54 | Step 11529 / 100000 | TPS 4.53228 | ETA 05:25:20
Time 00:43:04 | Step 11575 / 100000 | TPS 4.53183 | ETA 05:25:11
Time 00:43:14 | Step 11621 / 100000 | TPS 4.5287 | ETA 05:25:15
Time 00:43:25 | Step 11667 / 100000 | TPS 4.52926 | ETA 05:25:02
Time 00:43:35 | Step 11713 / 100000 | TPS 4.52603 | ETA 05:25:06
Time 00:43:45 | Step 11759 / 100000 | TPS 4.53733 | ETA 05:24:07
Time 00:43:55 | Step 11805 / 100000 | TPS 4.53487 | ETA 05:24:08
Time 00:44:05 | Step 11851 / 100000 | TPS 4.53217 | ETA 05:24:09
Time 00:44:15 | Step 11897 / 100000 | TPS 4.52925 | ETA 05:24:11
Time 00:44:26 | Step 11943 / 100000 | TPS 4.52671 | ETA 05:24:12
Time 00:44:36 | Step 11989 / 100000 | TPS 4.53039 | ETA 05:23:46
Time 00:44:46 | Step 12033 / 100000 | TPS 4.23325 | ETA 05:46:20
Time 00:44:56 | Step 12079 / 100000 | TPS 4.53578 | ETA 05:23:03
Time 00:45:06 | Step 12125 / 100000 | TPS 4.52673 | ETA 05:23:32
Time 00:45:17 | Step 12171 / 100000 | TPS 4.53297 | ETA 05:22:55
Time 00:45:27 | Step 12217 / 100000 | TPS 4.53064 | ETA 05:22:55
Time 00:45:37 | Step 12263 / 100000 | TPS 4.523 | ETA 05:23:17
Time 00:45:47 | Step 12309 / 100000 | TPS 4.51846 | ETA 05:23:27
Time 00:45:57 | Step 12355 / 100000 | TPS 4.52982 | ETA 05:22:28
Time 00:46:07 | Step 12401 / 100000 | TPS 4.52385 | ETA 05:22:43
Time 00:46:18 | Step 12447 / 100000 | TPS 4.52462 | ETA 05:22:30
Time 00:46:28 | Step 12493 / 100000 | TPS 4.52045 | ETA 05:22:38
Time 00:46:38 | Step 12539 / 100000 | TPS 4.51683 | ETA 05:22:43
Time 00:46:48 | Step 12585 / 100000 | TPS 4.51641 | ETA 05:22:34
Time 00:46:58 | Step 12631 / 100000 | TPS 4.51859 | ETA 05:22:15
Time 00:47:08 | Step 12677 / 100000 | TPS 4.51848 | ETA 05:22:05
Time 00:47:19 | Step 12723 / 100000 | TPS 4.52206 | ETA 05:21:40
Time 00:47:29 | Step 12769 / 100000 | TPS 4.50647 | ETA 05:22:36
Time 00:47:39 | Step 12815 / 100000 | TPS 4.51821 | ETA 05:21:36
Time 00:47:49 | Step 12861 / 100000 | TPS 4.50895 | ETA 05:22:05
Time 00:47:59 | Step 12907 / 100000 | TPS 4.50644 | ETA 05:22:06
Time 00:48:10 | Step 12953 / 100000 | TPS 4.52196 | ETA 05:20:49
Time 00:48:20 | Step 12999 / 100000 | TPS 4.51935 | ETA 05:20:50
Time 00:48:30 | Step 13041 / 100000 | TPS 4.19735 | ETA 05:45:17
Time 00:48:40 | Step 13087 / 100000 | TPS 4.50881 | ETA 05:21:16
Time 00:48:50 | Step 13133 / 100000 | TPS 4.50735 | ETA 05:21:12
Time 00:49:00 | Step 13179 / 100000 | TPS 4.50255 | ETA 05:21:22
Time 00:49:11 | Step 13225 / 100000 | TPS 4.50765 | ETA 05:20:50
Time 00:49:21 | Step 13271 / 100000 | TPS 4.5211 | ETA 05:19:43
Time 00:49:31 | Step 13317 / 100000 | TPS 4.51276 | ETA 05:20:08
Time 00:49:41 | Step 13363 / 100000 | TPS 4.5107 | ETA 05:20:06
Time 00:49:51 | Step 13409 / 100000 | TPS 4.50619 | ETA 05:20:15
Time 00:50:02 | Step 13455 / 100000 | TPS 4.50221 | ETA 05:20:22
Time 00:50:12 | Step 13501 / 100000 | TPS 4.50371 | ETA 05:20:06
Time 00:50:22 | Step 13547 / 100000 | TPS 4.52155 | ETA 05:18:40
Time 00:50:32 | Step 13593 / 100000 | TPS 4.50816 | ETA 05:19:26
Time 00:50:42 | Step 13639 / 100000 | TPS 4.50815 | ETA 05:19:16
Time 00:50:53 | Step 13685 / 100000 | TPS 4.51005 | ETA 05:18:58
Time 00:51:03 | Step 13731 / 100000 | TPS 4.49504 | ETA 05:19:52
Time 00:51:13 | Step 13777 / 100000 | TPS 4.49822 | ETA 05:19:28
Time 00:51:23 | Step 13823 / 100000 | TPS 4.50307 | ETA 05:18:57
Time 00:51:33 | Step 13869 / 100000 | TPS 4.50576 | ETA 05:18:35
Time 00:51:44 | Step 13915 / 100000 | TPS 4.4998 | ETA 05:18:50
Time 00:51:54 | Step 13961 / 100000 | TPS 4.49705 | ETA 05:18:52
Time 00:52:04 | Step 14003 / 100000 | TPS 4.18439 | ETA 05:42:31
Time 00:52:14 | Step 14049 / 100000 | TPS 4.49205 | ETA 05:18:54
Time 00:52:24 | Step 14095 / 100000 | TPS 4.49678 | ETA 05:18:23
Time 00:52:35 | Step 14141 / 100000 | TPS 4.48952 | ETA 05:18:44
Time 00:52:45 | Step 14187 / 100000 | TPS 4.4836 | ETA 05:18:59
Time 00:52:55 | Step 14233 / 100000 | TPS 4.48862 | ETA 05:18:27
Time 00:53:05 | Step 14279 / 100000 | TPS 4.48615 | ETA 05:18:27
Time 00:53:16 | Step 14325 / 100000 | TPS 4.48652 | ETA 05:18:16
Time 00:53:26 | Step 14371 / 100000 | TPS 4.47975 | ETA 05:18:34
Time 00:53:36 | Step 14417 / 100000 | TPS 4.48092 | ETA 05:18:19
Time 00:53:46 | Step 14463 / 100000 | TPS 4.49075 | ETA 05:17:27
Time 00:53:57 | Step 14509 / 100000 | TPS 4.48754 | ETA 05:17:30
Time 00:54:07 | Step 14555 / 100000 | TPS 4.48761 | ETA 05:17:20
Time 00:54:17 | Step 14601 / 100000 | TPS 4.49328 | ETA 05:16:45
Time 00:54:27 | Step 14647 / 100000 | TPS 4.48593 | ETA 05:17:06
Time 00:54:38 | Step 14693 / 100000 | TPS 4.48279 | ETA 05:17:09
Time 00:54:48 | Step 14739 / 100000 | TPS 4.48811 | ETA 05:16:37
Time 00:54:58 | Step 14785 / 100000 | TPS 4.48718 | ETA 05:16:30
Time 00:55:08 | Step 14831 / 100000 | TPS 4.48588 | ETA 05:16:26
Time 00:55:19 | Step 14877 / 100000 | TPS 4.48816 | ETA 05:16:06
Time 00:55:29 | Step 14923 / 100000 | TPS 4.48196 | ETA 05:16:22
Time 00:55:39 | Step 14969 / 100000 | TPS 4.48519 | ETA 05:15:58
Time 00:55:49 | Step 15011 / 100000 | TPS 4.16915 | ETA 05:39:45
Time 00:56:00 | Step 15057 / 100000 | TPS 4.4954 | ETA 05:14:55
Time 00:56:10 | Step 15103 / 100000 | TPS 4.48812 | ETA 05:15:15
Time 00:56:20 | Step 15150 / 100000 | TPS 4.56294 | ETA 05:09:55
Time 00:56:30 | Step 15196 / 100000 | TPS 4.47815 | ETA 05:15:37
Time 00:56:41 | Step 15242 / 100000 | TPS 4.47502 | ETA 05:15:40
Time 00:56:51 | Step 15288 / 100000 | TPS 4.46642 | ETA 05:16:06
Time 00:57:01 | Step 15333 / 100000 | TPS 4.39017 | ETA 05:21:25
Time 00:57:11 | Step 15379 / 100000 | TPS 4.47066 | ETA 05:15:28
Time 00:57:22 | Step 15425 / 100000 | TPS 4.4712 | ETA 05:15:15
Time 00:57:32 | Step 15471 / 100000 | TPS 4.45989 | ETA 05:15:53
Time 00:57:42 | Step 15517 / 100000 | TPS 4.45717 | ETA 05:15:54
Time 00:57:53 | Step 15563 / 100000 | TPS 4.46201 | ETA 05:15:23
Time 00:58:03 | Step 15609 / 100000 | TPS 4.45107 | ETA 05:15:59
Time 00:58:13 | Step 15655 / 100000 | TPS 4.46734 | ETA 05:14:40
Time 00:58:24 | Step 15701 / 100000 | TPS 4.46694 | ETA 05:14:31
Time 00:58:34 | Step 15747 / 100000 | TPS 4.4586 | ETA 05:14:56
Time 00:58:44 | Step 15793 / 100000 | TPS 4.4607 | ETA 05:14:37
Time 00:58:55 | Step 15839 / 100000 | TPS 4.4621 | ETA 05:14:21
Time 00:59:05 | Step 15886 / 100000 | TPS 4.54556 | ETA 05:08:24
Time 00:59:15 | Step 15931 / 100000 | TPS 4.37853 | ETA 05:20:00
Time 00:59:25 | Step 15977 / 100000 | TPS 4.47117 | ETA 05:13:12
Time 00:59:36 | Step 16019 / 100000 | TPS 4.15504 | ETA 05:36:51
Time 00:59:46 | Step 16065 / 100000 | TPS 4.46413 | ETA 05:13:22
Time 00:59:56 | Step 16111 / 100000 | TPS 4.46627 | ETA 05:13:02
Time 01:00:07 | Step 16157 / 100000 | TPS 4.4596 | ETA 05:13:20
Time 01:00:17 | Step 16203 / 100000 | TPS 4.45311 | ETA 05:13:37
Time 01:00:27 | Step 16249 / 100000 | TPS 4.46808 | ETA 05:12:24
Time 01:00:37 | Step 16295 / 100000 | TPS 4.46225 | ETA 05:12:38
Time 01:00:48 | Step 16341 / 100000 | TPS 4.45712 | ETA 05:12:49
Time 01:00:58 | Step 16388 / 100000 | TPS 4.53809 | ETA 05:07:04
Time 01:01:08 | Step 16434 / 100000 | TPS 4.45529 | ETA 05:12:36
Time 01:01:19 | Step 16480 / 100000 | TPS 4.44932 | ETA 05:12:51
Time 01:01:29 | Step 16525 / 100000 | TPS 4.36513 | ETA 05:18:43
Time 01:01:39 | Step 16571 / 100000 | TPS 4.455 | ETA 05:12:07
Time 01:01:50 | Step 16617 / 100000 | TPS 4.45202 | ETA 05:12:09
Time 01:02:00 | Step 16663 / 100000 | TPS 4.44722 | ETA 05:12:19
Time 01:02:10 | Step 16709 / 100000 | TPS 4.44939 | ETA 05:11:59
Time 01:02:21 | Step 16755 / 100000 | TPS 4.45127 | ETA 05:11:41
Time 01:02:31 | Step 16801 / 100000 | TPS 4.44338 | ETA 05:12:04
Time 01:02:41 | Step 16847 / 100000 | TPS 4.45021 | ETA 05:11:25
Time 01:02:52 | Step 16893 / 100000 | TPS 4.44957 | ETA 05:11:17
Time 01:03:02 | Step 16939 / 100000 | TPS 4.44172 | ETA 05:11:40
Time 01:03:12 | Step 16985 / 100000 | TPS 4.44745 | ETA 05:11:05
Time 01:03:23 | Step 17027 / 100000 | TPS 4.13221 | ETA 05:34:39
Time 01:03:33 | Step 17073 / 100000 | TPS 4.43562 | ETA 05:11:35
Time 01:03:43 | Step 17119 / 100000 | TPS 4.43659 | ETA 05:11:21
Time 01:03:54 | Step 17165 / 100000 | TPS 4.45182 | ETA 05:10:06
Time 01:04:04 | Step 17211 / 100000 | TPS 4.44559 | ETA 05:10:22
Time 01:04:14 | Step 17257 / 100000 | TPS 4.44226 | ETA 05:10:26
Time 01:04:25 | Step 17304 / 100000 | TPS 4.52978 | ETA 05:04:16
Time 01:04:35 | Step 17350 / 100000 | TPS 4.44516 | ETA 05:09:53
Time 01:04:46 | Step 17396 / 100000 | TPS 4.44425 | ETA 05:09:46
Time 01:04:56 | Step 17441 / 100000 | TPS 4.36269 | ETA 05:15:23
Time 01:05:06 | Step 17488 / 100000 | TPS 4.53073 | ETA 05:03:31
Time 01:05:17 | Step 17534 / 100000 | TPS 4.44272 | ETA 05:09:22
Time 01:05:27 | Step 17580 / 100000 | TPS 4.44381 | ETA 05:09:07
Time 01:05:37 | Step 17626 / 100000 | TPS 4.44253 | ETA 05:09:02
Time 01:05:48 | Step 17672 / 100000 | TPS 4.44431 | ETA 05:08:44
Time 01:05:58 | Step 17717 / 100000 | TPS 4.3537 | ETA 05:14:59
Time 01:06:08 | Step 17763 / 100000 | TPS 4.44733 | ETA 05:08:11
Time 01:06:19 | Step 17809 / 100000 | TPS 4.44261 | ETA 05:08:20
Time 01:06:29 | Step 17855 / 100000 | TPS 4.43491 | ETA 05:08:42
Time 01:06:39 | Step 17901 / 100000 | TPS 4.43387 | ETA 05:08:36
Time 01:06:50 | Step 17947 / 100000 | TPS 4.43027 | ETA 05:08:40
Time 01:07:00 | Step 17993 / 100000 | TPS 4.43587 | ETA 05:08:07
Time 01:07:10 | Step 18035 / 100000 | TPS 4.12278 | ETA 05:31:21
Time 01:07:21 | Step 18081 / 100000 | TPS 4.43783 | ETA 05:07:39
Time 01:07:31 | Step 18127 / 100000 | TPS 4.43161 | ETA 05:07:54
Time 01:07:41 | Step 18173 / 100000 | TPS 4.43299 | ETA 05:07:38
Time 01:07:52 | Step 18219 / 100000 | TPS 4.43055 | ETA 05:07:38
Time 01:08:02 | Step 18265 / 100000 | TPS 4.42428 | ETA 05:07:54
Time 01:08:12 | Step 18311 / 100000 | TPS 4.5967 | ETA 04:56:11
Time 01:08:23 | Step 18356 / 100000 | TPS 4.35528 | ETA 05:12:25
Time 01:08:33 | Step 18402 / 100000 | TPS 4.43077 | ETA 05:06:56
Time 01:08:43 | Step 18448 / 100000 | TPS 4.43174 | ETA 05:06:41
Time 01:08:54 | Step 18494 / 100000 | TPS 4.42606 | ETA 05:06:55
Time 01:09:04 | Step 18540 / 100000 | TPS 4.41994 | ETA 05:07:10
Time 01:09:15 | Step 18586 / 100000 | TPS 4.4265 | ETA 05:06:32
Time 01:09:25 | Step 18631 / 100000 | TPS 4.34725 | ETA 05:11:57
Time 01:09:35 | Step 18677 / 100000 | TPS 4.43701 | ETA 05:05:28
Time 01:09:46 | Step 18723 / 100000 | TPS 4.42684 | ETA 05:06:00
Time 01:09:56 | Step 18769 / 100000 | TPS 4.43119 | ETA 05:05:31
Time 01:10:06 | Step 18815 / 100000 | TPS 4.42444 | ETA 05:05:49
Time 01:10:17 | Step 18861 / 100000 | TPS 4.4236 | ETA 05:05:42
Time 01:10:27 | Step 18907 / 100000 | TPS 4.42632 | ETA 05:05:20
Time 01:10:38 | Step 18954 / 100000 | TPS 4.51729 | ETA 04:59:01
Time 01:10:48 | Step 19000 / 100000 | TPS 4.43236 | ETA 05:04:34
Time 01:10:58 | Step 19042 / 100000 | TPS 4.1339 | ETA 05:26:23
Time 01:11:09 | Step 19088 / 100000 | TPS 4.42579 | ETA 05:04:41
Time 01:11:19 | Step 19134 / 100000 | TPS 4.42421 | ETA 05:04:38
Time 01:11:29 | Step 19180 / 100000 | TPS 4.42209 | ETA 05:04:36
Time 01:11:40 | Step 19225 / 100000 | TPS 4.32909 | ETA 05:10:58
Time 01:11:50 | Step 19271 / 100000 | TPS 4.42268 | ETA 05:04:13
Time 01:12:01 | Step 19317 / 100000 | TPS 4.42367 | ETA 05:03:58
Time 01:12:11 | Step 19363 / 100000 | TPS 4.4179 | ETA 05:04:12
Time 01:12:21 | Step 19409 / 100000 | TPS 4.41735 | ETA 05:04:04
Time 01:12:32 | Step 19455 / 100000 | TPS 4.41767 | ETA 05:03:52
Time 01:12:42 | Step 19500 / 100000 | TPS 4.49933 | ETA 04:58:11
Time 01:12:52 | Step 19543 / 100000 | TPS 4.1687 | ETA 05:21:40
Time 01:13:02 | Step 19589 / 100000 | TPS 4.42335 | ETA 05:02:58
Time 01:13:13 | Step 19635 / 100000 | TPS 4.58823 | ETA 04:51:55
Time 01:13:23 | Step 19680 / 100000 | TPS 4.32817 | ETA 05:09:17
Time 01:13:33 | Step 19725 / 100000 | TPS 4.49995 | ETA 04:57:19
Time 01:13:43 | Step 19770 / 100000 | TPS 4.32853 | ETA 05:08:55
Time 01:13:54 | Step 19815 / 100000 | TPS 4.32787 | ETA 05:08:47
Time 01:14:04 | Step 19861 / 100000 | TPS 4.42433 | ETA 05:01:53
Time 01:14:15 | Step 19907 / 100000 | TPS 4.41827 | ETA 05:02:07
Time 01:14:25 | Step 19953 / 100000 | TPS 4.41333 | ETA 05:02:17
Time 01:14:35 | Step 19999 / 100000 | TPS 4.41544 | ETA 05:01:58
Time 01:14:46 | Step 20041 / 100000 | TPS 4.11157 | ETA 05:24:07
Time 01:14:56 | Step 20086 / 100000 | TPS 4.49121 | ETA 04:56:33
Time 01:15:06 | Step 20131 / 100000 | TPS 4.33027 | ETA 05:07:24
Time 01:15:16 | Step 20177 / 100000 | TPS 4.58775 | ETA 04:49:59
Time 01:15:26 | Step 20222 / 100000 | TPS 4.33014 | ETA 05:07:03
Time 01:15:37 | Step 20268 / 100000 | TPS 4.41728 | ETA 05:00:50
Time 01:15:47 | Step 20313 / 100000 | TPS 4.49712 | ETA 04:55:19
Time 01:15:57 | Step 20358 / 100000 | TPS 4.32425 | ETA 05:06:57
Time 01:16:08 | Step 20399 / 100000 | TPS 3.90824 | ETA 05:39:27
Time 01:16:18 | Step 20439 / 100000 | TPS 3.91756 | ETA 05:38:28
Time 01:16:28 | Step 20484 / 100000 | TPS 4.49817 | ETA 04:54:37
Time 01:16:38 | Step 20529 / 100000 | TPS 4.32779 | ETA 05:06:02
Time 01:16:48 | Step 20574 / 100000 | TPS 4.49557 | ETA 04:54:27
Time 01:16:59 | Step 20619 / 100000 | TPS 4.33016 | ETA 05:05:32
Time 01:17:09 | Step 20664 / 100000 | TPS 4.49244 | ETA 04:54:19
Time 01:17:19 | Step 20708 / 100000 | TPS 4.39979 | ETA 05:00:21
Time 01:17:29 | Step 20753 / 100000 | TPS 4.336 | ETA 05:04:36
Time 01:17:40 | Step 20799 / 100000 | TPS 4.41656 | ETA 04:58:52
Time 01:17:50 | Step 20844 / 100000 | TPS 4.49767 | ETA 04:53:19
Time 01:18:00 | Step 20889 / 100000 | TPS 4.32082 | ETA 05:05:09
Time 01:18:10 | Step 20934 / 100000 | TPS 4.4898 | ETA 04:53:30
Time 01:18:20 | Step 20979 / 100000 | TPS 4.32225 | ETA 05:04:42
Time 01:18:31 | Step 21021 / 100000 | TPS 4.10039 | ETA 05:21:01
Time 01:18:41 | Step 21066 / 100000 | TPS 4.4976 | ETA 04:52:30
Time 01:18:51 | Step 21111 / 100000 | TPS 4.32142 | ETA 05:04:15
Time 01:19:01 | Step 21156 / 100000 | TPS 4.49016 | ETA 04:52:39
Time 01:19:11 | Step 21201 / 100000 | TPS 4.32037 | ETA 05:03:58
Time 01:19:22 | Step 21246 / 100000 | TPS 4.49434 | ETA 04:52:02
Time 01:19:32 | Step 21291 / 100000 | TPS 4.31749 | ETA 05:03:50
Time 01:19:42 | Step 21336 / 100000 | TPS 4.49205 | ETA 04:51:51
Time 01:19:52 | Step 21381 / 100000 | TPS 4.32846 | ETA 05:02:43
Time 01:20:02 | Step 21426 / 100000 | TPS 4.49347 | ETA 04:51:26
Time 01:20:13 | Step 21471 / 100000 | TPS 4.32332 | ETA 05:02:44
Time 01:20:23 | Step 21516 / 100000 | TPS 4.49032 | ETA 04:51:18
Time 01:20:33 | Step 21561 / 100000 | TPS 4.32537 | ETA 05:02:14
Time 01:20:43 | Step 21606 / 100000 | TPS 4.48914 | ETA 04:51:03
Time 01:20:54 | Step 21651 / 100000 | TPS 4.32931 | ETA 05:01:37
Time 01:21:04 | Step 21696 / 100000 | TPS 4.49951 | ETA 04:50:02
Time 01:21:14 | Step 21741 / 100000 | TPS 4.32352 | ETA 05:01:40
Time 01:21:24 | Step 21786 / 100000 | TPS 4.4879 | ETA 04:50:27
Time 01:21:34 | Step 21830 / 100000 | TPS 4.39539 | ETA 04:56:24
Time 01:21:44 | Step 21874 / 100000 | TPS 4.39259 | ETA 04:56:25
Time 01:21:54 | Step 21918 / 100000 | TPS 4.39626 | ETA 04:56:01
Time 01:22:05 | Step 21963 / 100000 | TPS 4.31803 | ETA 05:01:12
Time 01:22:15 | Step 22005 / 100000 | TPS 4.10422 | ETA 05:16:43
Time 01:22:25 | Step 22050 / 100000 | TPS 4.48276 | ETA 04:49:48
Time 01:22:35 | Step 22094 / 100000 | TPS 4.39908 | ETA 04:55:09
Time 01:22:45 | Step 22138 / 100000 | TPS 4.23352 | ETA 05:06:31
Time 01:22:55 | Step 22182 / 100000 | TPS 4.39847 | ETA 04:54:52
Time 01:23:05 | Step 22226 / 100000 | TPS 4.39504 | ETA 04:54:55
Time 01:23:15 | Step 22271 / 100000 | TPS 4.49513 | ETA 04:48:11
Time 01:23:26 | Step 22316 / 100000 | TPS 4.31971 | ETA 04:59:43
Time 01:23:36 | Step 22360 / 100000 | TPS 4.39694 | ETA 04:54:17
Time 01:23:46 | Step 22405 / 100000 | TPS 4.47938 | ETA 04:48:42
Time 01:23:56 | Step 22449 / 100000 | TPS 4.39566 | ETA 04:54:02
Time 01:24:06 | Step 22493 / 100000 | TPS 4.39213 | ETA 04:54:06
Time 01:24:16 | Step 22537 / 100000 | TPS 4.399 | ETA 04:53:29
Time 01:24:26 | Step 22581 / 100000 | TPS 4.396 | ETA 04:53:31
Time 01:24:36 | Step 22626 / 100000 | TPS 4.48437 | ETA 04:47:34
Time 01:24:46 | Step 22670 / 100000 | TPS 4.39829 | ETA 04:53:01
Time 01:24:56 | Step 22714 / 100000 | TPS 4.39222 | ETA 04:53:16
Time 01:25:06 | Step 22758 / 100000 | TPS 4.39442 | ETA 04:52:57
Time 01:25:16 | Step 22803 / 100000 | TPS 4.47965 | ETA 04:47:12
Time 01:25:26 | Step 22847 / 100000 | TPS 4.3999 | ETA 04:52:15
Time 01:25:36 | Step 22891 / 100000 | TPS 4.39885 | ETA 04:52:09
Time 01:25:46 | Step 22935 / 100000 | TPS 4.39873 | ETA 04:51:59
Time 01:25:56 | Step 22979 / 100000 | TPS 4.38929 | ETA 04:52:27
Time 01:26:06 | Step 23022 / 100000 | TPS 4.18 | ETA 05:06:55
Time 01:26:16 | Step 23066 / 100000 | TPS 4.39139 | ETA 04:51:59
Time 01:26:26 | Step 23110 / 100000 | TPS 4.39447 | ETA 04:51:37
Time 01:26:37 | Step 23155 / 100000 | TPS 4.32067 | ETA 04:56:25
Time 01:26:47 | Step 23199 / 100000 | TPS 4.39655 | ETA 04:51:08
Time 01:26:57 | Step 23244 / 100000 | TPS 4.47985 | ETA 04:45:33
Time 01:27:07 | Step 23288 / 100000 | TPS 4.39124 | ETA 04:51:09
Time 01:27:17 | Step 23332 / 100000 | TPS 4.39412 | ETA 04:50:47
Time 01:27:27 | Step 23376 / 100000 | TPS 4.39166 | ETA 04:50:47
Time 01:27:37 | Step 23420 / 100000 | TPS 4.39199 | ETA 04:50:36
Time 01:27:47 | Step 23464 / 100000 | TPS 4.39935 | ETA 04:49:57
Time 01:27:57 | Step 23508 / 100000 | TPS 4.39837 | ETA 04:49:50
Time 01:28:07 | Step 23552 / 100000 | TPS 4.39619 | ETA 04:49:49
Time 01:28:17 | Step 23596 / 100000 | TPS 4.39227 | ETA 04:49:55
Time 01:28:27 | Step 23640 / 100000 | TPS 4.39178 | ETA 04:49:47
Time 01:28:37 | Step 23684 / 100000 | TPS 4.39089 | ETA 04:49:40
Time 01:28:47 | Step 23728 / 100000 | TPS 4.39367 | ETA 04:49:19
Time 01:28:57 | Step 23773 / 100000 | TPS 4.32155 | ETA 04:53:58
Time 01:29:07 | Step 23817 / 100000 | TPS 4.39352 | ETA 04:48:59
Time 01:29:17 | Step 23862 / 100000 | TPS 4.47534 | ETA 04:43:32
Time 01:29:27 | Step 23906 / 100000 | TPS 4.39241 | ETA 04:48:43
Time 01:29:37 | Step 23950 / 100000 | TPS 4.38688 | ETA 04:48:55
Time 01:29:47 | Step 23994 / 100000 | TPS 4.38998 | ETA 04:48:33
Time 01:29:58 | Step 24035 / 100000 | TPS 4.00918 | ETA 05:15:47
Time 01:30:08 | Step 24079 / 100000 | TPS 4.39979 | ETA 04:47:35
Time 01:30:18 | Step 24123 / 100000 | TPS 4.39727 | ETA 04:47:35
Time 01:30:28 | Step 24167 / 100000 | TPS 4.39072 | ETA 04:47:51
Time 01:30:38 | Step 24211 / 100000 | TPS 4.39343 | ETA 04:47:30
Time 01:30:48 | Step 24255 / 100000 | TPS 4.38729 | ETA 04:47:44
Time 01:30:58 | Step 24299 / 100000 | TPS 4.38536 | ETA 04:47:42
Time 01:31:08 | Step 24343 / 100000 | TPS 4.38991 | ETA 04:47:14
Time 01:31:18 | Step 24387 / 100000 | TPS 4.39301 | ETA 04:46:52
Time 01:31:28 | Step 24431 / 100000 | TPS 4.3899 | ETA 04:46:54
Time 01:31:38 | Step 24475 / 100000 | TPS 4.38836 | ETA 04:46:50
Time 01:31:48 | Step 24519 / 100000 | TPS 4.37969 | ETA 04:47:14
Time 01:31:58 | Step 24563 / 100000 | TPS 4.38339 | ETA 04:46:49
Time 01:32:08 | Step 24607 / 100000 | TPS 4.38047 | ETA 04:46:51
Time 01:32:18 | Step 24651 / 100000 | TPS 4.39283 | ETA 04:45:52
Time 01:32:28 | Step 24695 / 100000 | TPS 4.39122 | ETA 04:45:49
Time 01:32:38 | Step 24739 / 100000 | TPS 4.38791 | ETA 04:45:51
Time 01:32:48 | Step 24783 / 100000 | TPS 4.38732 | ETA 04:45:44
Time 01:32:58 | Step 24827 / 100000 | TPS 4.38236 | ETA 04:45:53
Time 01:33:08 | Step 24871 / 100000 | TPS 4.38726 | ETA 04:45:24
Time 01:33:18 | Step 24915 / 100000 | TPS 4.38617 | ETA 04:45:18
Time 01:33:28 | Step 24959 / 100000 | TPS 4.39452 | ETA 04:44:36
Time 01:33:38 | Step 25001 / 100000 | TPS 4.10287 | ETA 05:04:39
Time 01:33:48 | Step 25045 / 100000 | TPS 4.39547 | ETA 04:44:12
Time 01:33:58 | Step 25089 / 100000 | TPS 4.38808 | ETA 04:44:31
Time 01:34:08 | Step 25133 / 100000 | TPS 4.38331 | ETA 04:44:40
Time 01:34:18 | Step 25177 / 100000 | TPS 4.38741 | ETA 04:44:14
Time 01:34:28 | Step 25221 / 100000 | TPS 4.38825 | ETA 04:44:00
Time 01:34:38 | Step 25265 / 100000 | TPS 4.39248 | ETA 04:43:34
Time 01:34:49 | Step 25309 / 100000 | TPS 4.38971 | ETA 04:43:35
Time 01:34:59 | Step 25353 / 100000 | TPS 4.39572 | ETA 04:43:01
Time 01:35:09 | Step 25397 / 100000 | TPS 4.39096 | ETA 04:43:10
Time 01:35:19 | Step 25441 / 100000 | TPS 4.39062 | ETA 04:43:01
Time 01:35:29 | Step 25485 / 100000 | TPS 4.38962 | ETA 04:42:55
Time 01:35:39 | Step 25529 / 100000 | TPS 4.39155 | ETA 04:42:37
Time 01:35:49 | Step 25573 / 100000 | TPS 4.3937 | ETA 04:42:19
Time 01:35:59 | Step 25617 / 100000 | TPS 4.39714 | ETA 04:41:56
Time 01:36:09 | Step 25661 / 100000 | TPS 4.39306 | ETA 04:42:01
Time 01:36:19 | Step 25705 / 100000 | TPS 4.38762 | ETA 04:42:12
Time 01:36:29 | Step 25749 / 100000 | TPS 4.3864 | ETA 04:42:07
Time 01:36:39 | Step 25793 / 100000 | TPS 4.3882 | ETA 04:41:50
Time 01:36:49 | Step 25837 / 100000 | TPS 4.39694 | ETA 04:41:06
Time 01:36:59 | Step 25881 / 100000 | TPS 4.3936 | ETA 04:41:09
Time 01:37:09 | Step 25926 / 100000 | TPS 4.48622 | ETA 04:35:11
Time 01:37:19 | Step 25970 / 100000 | TPS 4.39047 | ETA 04:41:01
Time 01:37:29 | Step 26011 / 100000 | TPS 4.01147 | ETA 05:07:24
Time 01:37:39 | Step 26055 / 100000 | TPS 4.38861 | ETA 04:40:49
Time 01:37:49 | Step 26099 / 100000 | TPS 4.38835 | ETA 04:40:40
Time 01:37:59 | Step 26143 / 100000 | TPS 4.39569 | ETA 04:40:02
Time 01:38:09 | Step 26187 / 100000 | TPS 4.39619 | ETA 04:39:50
Time 01:38:19 | Step 26231 / 100000 | TPS 4.39246 | ETA 04:39:54
Time 01:38:29 | Step 26275 / 100000 | TPS 4.39143 | ETA 04:39:48
Time 01:38:39 | Step 26319 / 100000 | TPS 4.39182 | ETA 04:39:36
Time 01:38:49 | Step 26363 / 100000 | TPS 4.38934 | ETA 04:39:36
Time 01:38:59 | Step 26407 / 100000 | TPS 4.39315 | ETA 04:39:11
Time 01:39:09 | Step 26452 / 100000 | TPS 4.49181 | ETA 04:32:53
Time 01:39:19 | Step 26497 / 100000 | TPS 4.48678 | ETA 04:33:02
Time 01:39:30 | Step 26542 / 100000 | TPS 4.3197 | ETA 04:43:25
Time 01:39:40 | Step 26586 / 100000 | TPS 4.39917 | ETA 04:38:08
Time 01:39:50 | Step 26630 / 100000 | TPS 4.38651 | ETA 04:38:46
Time 01:40:00 | Step 26674 / 100000 | TPS 4.38883 | ETA 04:38:27
Time 01:40:10 | Step 26718 / 100000 | TPS 4.38854 | ETA 04:38:18
Time 01:40:20 | Step 26762 / 100000 | TPS 4.39908 | ETA 04:37:28
Time 01:40:30 | Step 26806 / 100000 | TPS 4.39801 | ETA 04:37:22
Time 01:40:40 | Step 26850 / 100000 | TPS 4.3973 | ETA 04:37:15
Time 01:40:50 | Step 26894 / 100000 | TPS 4.39972 | ETA 04:36:56
Time 01:41:00 | Step 26938 / 100000 | TPS 4.39351 | ETA 04:37:09
Time 01:41:10 | Step 26982 / 100000 | TPS 4.3967 | ETA 04:36:47
Time 01:41:20 | Step 27023 / 100000 | TPS 4.00772 | ETA 05:03:29
Time 01:41:30 | Step 27068 / 100000 | TPS 4.48908 | ETA 04:30:46
Time 01:41:40 | Step 27113 / 100000 | TPS 4.31928 | ETA 04:41:14
Time 01:41:50 | Step 27157 / 100000 | TPS 4.39994 | ETA 04:35:55
Time 01:42:00 | Step 27201 / 100000 | TPS 4.39497 | ETA 04:36:04
Time 01:42:10 | Step 27245 / 100000 | TPS 4.39823 | ETA 04:35:41
Time 01:42:20 | Step 27289 / 100000 | TPS 4.39973 | ETA 04:35:26
Time 01:42:30 | Step 27333 / 100000 | TPS 4.39914 | ETA 04:35:18
Time 01:42:40 | Step 27378 / 100000 | TPS 4.4918 | ETA 04:29:27
Time 01:42:51 | Step 27423 / 100000 | TPS 4.322 | ETA 04:39:52
Time 01:43:01 | Step 27468 / 100000 | TPS 4.48872 | ETA 04:29:18
Time 01:43:11 | Step 27513 / 100000 | TPS 4.31882 | ETA 04:39:43
Time 01:43:21 | Step 27557 / 100000 | TPS 4.39955 | ETA 04:34:26
Time 01:43:31 | Step 27601 / 100000 | TPS 4.38553 | ETA 04:35:08
Time 01:43:41 | Step 27646 / 100000 | TPS 4.49711 | ETA 04:28:09
Time 01:43:52 | Step 27691 / 100000 | TPS 4.32033 | ETA 04:38:56
Time 01:44:02 | Step 27735 / 100000 | TPS 4.3996 | ETA 04:33:45
Time 01:44:12 | Step 27780 / 100000 | TPS 4.4874 | ETA 04:28:13
Time 01:44:22 | Step 27824 / 100000 | TPS 4.39498 | ETA 04:33:42
Time 01:44:32 | Step 27869 / 100000 | TPS 4.31903 | ETA 04:38:20
Time 01:44:42 | Step 27913 / 100000 | TPS 4.39255 | ETA 04:33:31
Time 01:44:52 | Step 27958 / 100000 | TPS 4.49369 | ETA 04:27:11
Time 01:45:03 | Step 28001 / 100000 | TPS 4.03218 | ETA 04:57:36
Time 01:45:13 | Step 28045 / 100000 | TPS 4.39466 | ETA 04:32:53
Time 01:45:23 | Step 28089 / 100000 | TPS 4.3968 | ETA 04:32:35
Time 01:45:33 | Step 28133 / 100000 | TPS 4.3959 | ETA 04:32:28
Time 01:45:43 | Step 28177 / 100000 | TPS 4.39884 | ETA 04:32:07
Time 01:45:53 | Step 28222 / 100000 | TPS 4.48798 | ETA 04:26:33
Time 01:46:03 | Step 28267 / 100000 | TPS 4.32116 | ETA 04:36:40
Time 01:46:13 | Step 28312 / 100000 | TPS 4.4891 | ETA 04:26:09
Time 01:46:23 | Step 28356 / 100000 | TPS 4.39945 | ETA 04:31:24
Time 01:46:34 | Step 28401 / 100000 | TPS 4.32636 | ETA 04:35:49
Time 01:46:44 | Step 28445 / 100000 | TPS 4.39763 | ETA 04:31:11
Time 01:46:54 | Step 28489 / 100000 | TPS 4.39525 | ETA 04:31:10
Time 01:47:04 | Step 28534 / 100000 | TPS 4.49463 | ETA 04:25:00
Time 01:47:14 | Step 28579 / 100000 | TPS 4.32671 | ETA 04:35:07
Time 01:47:24 | Step 28624 / 100000 | TPS 4.49051 | ETA 04:24:54
Time 01:47:35 | Step 28669 / 100000 | TPS 4.31785 | ETA 04:35:20
Time 01:47:45 | Step 28714 / 100000 | TPS 4.48713 | ETA 04:24:46
Time 01:47:55 | Step 28758 / 100000 | TPS 4.39735 | ETA 04:30:01
Time 01:48:05 | Step 28803 / 100000 | TPS 4.32369 | ETA 04:34:26
Time 01:48:15 | Step 28848 / 100000 | TPS 4.49979 | ETA 04:23:32
Time 01:48:25 | Step 28893 / 100000 | TPS 4.49782 | ETA 04:23:29
Time 01:48:36 | Step 28938 / 100000 | TPS 4.32165 | ETA 04:34:03
Time 01:48:46 | Step 28983 / 100000 | TPS 4.48755 | ETA 04:23:45
Time 01:48:56 | Step 29024 / 100000 | TPS 4.01069 | ETA 04:54:56
Time 01:49:06 | Step 29068 / 100000 | TPS 4.39676 | ETA 04:28:52
Time 01:49:16 | Step 29113 / 100000 | TPS 4.32023 | ETA 04:33:28
Time 01:49:27 | Step 29159 / 100000 | TPS 4.41336 | ETA 04:27:31
Time 01:49:37 | Step 29204 / 100000 | TPS 4.49894 | ETA 04:22:16
Time 01:49:47 | Step 29249 / 100000 | TPS 4.32821 | ETA 04:32:26
Time 01:49:57 | Step 29294 / 100000 | TPS 4.49146 | ETA 04:22:22
Time 01:50:08 | Step 29339 / 100000 | TPS 4.32297 | ETA 04:32:25
Time 01:50:18 | Step 29384 / 100000 | TPS 4.48735 | ETA 04:22:16
Time 01:50:28 | Step 29429 / 100000 | TPS 4.32542 | ETA 04:31:55
Time 01:50:38 | Step 29474 / 100000 | TPS 4.4976 | ETA 04:21:20
Time 01:50:48 | Step 29519 / 100000 | TPS 4.33093 | ETA 04:31:13
Time 01:50:58 | Step 29564 / 100000 | TPS 4.49376 | ETA 04:21:14
Time 01:51:09 | Step 29609 / 100000 | TPS 4.32346 | ETA 04:31:21
Time 01:51:19 | Step 29654 / 100000 | TPS 4.48756 | ETA 04:21:15
Time 01:51:29 | Step 29699 / 100000 | TPS 4.31829 | ETA 04:31:19
Time 01:51:39 | Step 29744 / 100000 | TPS 4.49473 | ETA 04:20:30
Time 01:51:50 | Step 29789 / 100000 | TPS 4.32766 | ETA 04:30:23
Time 01:52:00 | Step 29835 / 100000 | TPS 4.41608 | ETA 04:24:48
Time 01:52:10 | Step 29880 / 100000 | TPS 4.49548 | ETA 04:19:57
Time 01:52:20 | Step 29925 / 100000 | TPS 4.32608 | ETA 04:29:58
Time 01:52:30 | Step 29969 / 100000 | TPS 4.39826 | ETA 04:25:22
Time 01:52:41 | Step 30011 / 100000 | TPS 4.10799 | ETA 04:43:57
Time 01:52:51 | Step 30056 / 100000 | TPS 4.49558 | ETA 04:19:18
Time 01:53:01 | Step 30101 / 100000 | TPS 4.32724 | ETA 04:29:13
Time 01:53:11 | Step 30146 / 100000 | TPS 4.49496 | ETA 04:19:00
Time 01:53:21 | Step 30191 / 100000 | TPS 4.32359 | ETA 04:29:06
Time 01:53:32 | Step 30236 / 100000 | TPS 4.48859 | ETA 04:19:02
Time 01:53:42 | Step 30281 / 100000 | TPS 4.32245 | ETA 04:28:49
Time 01:53:52 | Step 30326 / 100000 | TPS 4.4882 | ETA 04:18:43
Time 01:54:02 | Step 30371 / 100000 | TPS 4.33102 | ETA 04:27:56
Time 01:54:13 | Step 30413 / 100000 | TPS 4.07428 | ETA 04:44:39
Time 01:54:23 | Step 30458 / 100000 | TPS 4.49657 | ETA 04:17:45
Time 01:54:33 | Step 30503 / 100000 | TPS 4.32574 | ETA 04:27:45
Time 01:54:43 | Step 30548 / 100000 | TPS 4.49684 | ETA 04:17:24
Time 01:54:53 | Step 30593 / 100000 | TPS 4.32343 | ETA 04:27:33
Time 01:55:03 | Step 30638 / 100000 | TPS 4.49998 | ETA 04:16:53
Time 01:55:14 | Step 30684 / 100000 | TPS 4.41584 | ETA 04:21:37
Time 01:55:24 | Step 30730 / 100000 | TPS 4.41503 | ETA 04:21:29
Time 01:55:34 | Step 30775 / 100000 | TPS 4.49721 | ETA 04:16:32
Time 01:55:45 | Step 30820 / 100000 | TPS 4.32434 | ETA 04:26:37
Time 01:55:55 | Step 30865 / 100000 | TPS 4.49661 | ETA 04:16:14
Time 01:56:05 | Step 30909 / 100000 | TPS 4.23397 | ETA 04:31:58
Time 01:56:16 | Step 30955 / 100000 | TPS 4.41987 | ETA 04:20:21
Time 01:56:26 | Step 31000 / 100000 | TPS 4.49948 | ETA 04:15:35
Time 01:56:36 | Step 31041 / 100000 | TPS 4.02348 | ETA 04:45:39
Time 01:56:46 | Step 31086 / 100000 | TPS 4.49828 | ETA 04:15:20
Time 01:56:56 | Step 31131 / 100000 | TPS 4.33238 | ETA 04:24:56
Time 01:57:06 | Step 31176 / 100000 | TPS 4.49598 | ETA 04:15:07
Time 01:57:17 | Step 31221 / 100000 | TPS 4.33148 | ETA 04:24:38
Time 01:57:27 | Step 31267 / 100000 | TPS 4.4223 | ETA 04:19:02
Time 01:57:37 | Step 31313 / 100000 | TPS 4.42086 | ETA 04:18:57
Time 01:57:48 | Step 31359 / 100000 | TPS 4.41442 | ETA 04:19:09
Time 01:57:58 | Step 31405 / 100000 | TPS 4.41499 | ETA 04:18:56
Time 01:58:09 | Step 31451 / 100000 | TPS 4.41486 | ETA 04:18:46
Time 01:58:19 | Step 31496 / 100000 | TPS 4.49656 | ETA 04:13:54
Time 01:58:29 | Step 31541 / 100000 | TPS 4.33709 | ETA 04:23:04
Time 01:58:39 | Step 31587 / 100000 | TPS 4.42606 | ETA 04:17:36
Time 01:58:50 | Step 31633 / 100000 | TPS 4.41838 | ETA 04:17:53
Time 01:59:00 | Step 31679 / 100000 | TPS 4.41961 | ETA 04:17:38
Time 01:59:11 | Step 31725 / 100000 | TPS 4.41542 | ETA 04:17:42
Time 01:59:21 | Step 31771 / 100000 | TPS 4.41434 | ETA 04:17:36
Time 01:59:31 | Step 31816 / 100000 | TPS 4.49927 | ETA 04:12:34
Time 01:59:41 | Step 31861 / 100000 | TPS 4.33977 | ETA 04:21:41
Time 01:59:52 | Step 31907 / 100000 | TPS 4.41496 | ETA 04:17:03
Time 02:00:02 | Step 31953 / 100000 | TPS 4.42456 | ETA 04:16:19
Time 02:00:13 | Step 31999 / 100000 | TPS 4.41545 | ETA 04:16:40
Time 02:00:23 | Step 32041 / 100000 | TPS 4.11355 | ETA 04:35:20
Time 02:00:33 | Step 32087 / 100000 | TPS 4.41557 | ETA 04:16:20
Time 02:00:44 | Step 32133 / 100000 | TPS 4.41643 | ETA 04:16:06
Time 02:00:54 | Step 32179 / 100000 | TPS 4.43038 | ETA 04:15:08
Time 02:01:04 | Step 32225 / 100000 | TPS 4.42942 | ETA 04:15:01
Time 02:01:15 | Step 32271 / 100000 | TPS 4.41991 | ETA 04:15:23
Time 02:01:25 | Step 32317 / 100000 | TPS 4.42255 | ETA 04:15:04
Time 02:01:36 | Step 32363 / 100000 | TPS 4.42299 | ETA 04:14:52
Time 02:01:46 | Step 32409 / 100000 | TPS 4.41464 | ETA 04:15:10
Time 02:01:56 | Step 32455 / 100000 | TPS 4.43104 | ETA 04:14:03
Time 02:02:07 | Step 32501 / 100000 | TPS 4.4273 | ETA 04:14:06
Time 02:02:17 | Step 32547 / 100000 | TPS 4.42278 | ETA 04:14:11
Time 02:02:28 | Step 32593 / 100000 | TPS 4.423 | ETA 04:14:00
Time 02:02:38 | Step 32639 / 100000 | TPS 4.42001 | ETA 04:14:00
Time 02:02:48 | Step 32685 / 100000 | TPS 4.41613 | ETA 04:14:02
Time 02:02:59 | Step 32731 / 100000 | TPS 4.42207 | ETA 04:13:32
Time 02:03:09 | Step 32777 / 100000 | TPS 4.42908 | ETA 04:12:57
Time 02:03:19 | Step 32823 / 100000 | TPS 4.59611 | ETA 04:03:36
Time 02:03:30 | Step 32868 / 100000 | TPS 4.34316 | ETA 04:17:36
Time 02:03:40 | Step 32914 / 100000 | TPS 4.42388 | ETA 04:12:44
Time 02:03:50 | Step 32960 / 100000 | TPS 4.42175 | ETA 04:12:41
Time 02:04:01 | Step 33001 / 100000 | TPS 4.0241 | ETA 04:37:29
Time 02:04:11 | Step 33047 / 100000 | TPS 4.43144 | ETA 04:11:48
Time 02:04:21 | Step 33093 / 100000 | TPS 4.4247 | ETA 04:12:01
Time 02:04:32 | Step 33139 / 100000 | TPS 4.41998 | ETA 04:12:07
Time 02:04:42 | Step 33185 / 100000 | TPS 4.42924 | ETA 04:11:24
Time 02:04:53 | Step 33231 / 100000 | TPS 4.4175 | ETA 04:11:54
Time 02:05:03 | Step 33277 / 100000 | TPS 4.41782 | ETA 04:11:43
Time 02:05:13 | Step 33323 / 100000 | TPS 4.42664 | ETA 04:11:02
Time 02:05:24 | Step 33369 / 100000 | TPS 4.43205 | ETA 04:10:33
Time 02:05:34 | Step 33415 / 100000 | TPS 4.42602 | ETA 04:10:43
Time 02:05:45 | Step 33461 / 100000 | TPS 4.42372 | ETA 04:10:41
Time 02:05:55 | Step 33507 / 100000 | TPS 4.42094 | ETA 04:10:40
Time 02:06:05 | Step 33553 / 100000 | TPS 4.42395 | ETA 04:10:19
Time 02:06:16 | Step 33599 / 100000 | TPS 4.42552 | ETA 04:10:04
Time 02:06:26 | Step 33645 / 100000 | TPS 4.42749 | ETA 04:09:47
Time 02:06:37 | Step 33691 / 100000 | TPS 4.43766 | ETA 04:09:02
Time 02:06:47 | Step 33737 / 100000 | TPS 4.42717 | ETA 04:09:27
Time 02:06:57 | Step 33783 / 100000 | TPS 4.42677 | ETA 04:09:18
Time 02:07:08 | Step 33829 / 100000 | TPS 4.42305 | ETA 04:09:20
Time 02:07:18 | Step 33875 / 100000 | TPS 4.42582 | ETA 04:09:00
Time 02:07:29 | Step 33921 / 100000 | TPS 4.41949 | ETA 04:09:11
Time 02:07:39 | Step 33967 / 100000 | TPS 4.43112 | ETA 04:08:22
Time 02:07:49 | Step 34009 / 100000 | TPS 4.12559 | ETA 04:26:35
Time 02:07:59 | Step 34055 / 100000 | TPS 4.43686 | ETA 04:07:42
Time 02:08:10 | Step 34101 / 100000 | TPS 4.42613 | ETA 04:08:08
Time 02:08:20 | Step 34147 / 100000 | TPS 4.42674 | ETA 04:07:56
Time 02:08:31 | Step 34193 / 100000 | TPS 4.41974 | ETA 04:08:09
Time 02:08:41 | Step 34239 / 100000 | TPS 4.42972 | ETA 04:07:25
Time 02:08:51 | Step 34285 / 100000 | TPS 4.43686 | ETA 04:06:51
Time 02:09:02 | Step 34331 / 100000 | TPS 4.43094 | ETA 04:07:00
Time 02:09:12 | Step 34377 / 100000 | TPS 4.43427 | ETA 04:06:39
Time 02:09:23 | Step 34423 / 100000 | TPS 4.4249 | ETA 04:07:00
Time 02:09:33 | Step 34469 / 100000 | TPS 4.42181 | ETA 04:06:59
Time 02:09:43 | Step 34515 / 100000 | TPS 4.42654 | ETA 04:06:33
Time 02:09:54 | Step 34561 / 100000 | TPS 4.44089 | ETA 04:05:35
Time 02:10:04 | Step 34607 / 100000 | TPS 4.43909 | ETA 04:05:31
Time 02:10:14 | Step 34653 / 100000 | TPS 4.43091 | ETA 04:05:48
Time 02:10:25 | Step 34699 / 100000 | TPS 4.42763 | ETA 04:05:48
Time 02:10:35 | Step 34745 / 100000 | TPS 4.42452 | ETA 04:05:48
Time 02:10:46 | Step 34791 / 100000 | TPS 4.42919 | ETA 04:05:22
Time 02:10:56 | Step 34837 / 100000 | TPS 4.43581 | ETA 04:04:50
Time 02:11:06 | Step 34883 / 100000 | TPS 4.42726 | ETA 04:05:08
Time 02:11:17 | Step 34929 / 100000 | TPS 4.42661 | ETA 04:04:59
Time 02:11:27 | Step 34975 / 100000 | TPS 4.42378 | ETA 04:04:58
Time 02:11:37 | Step 35017 / 100000 | TPS 4.11968 | ETA 04:22:53
Time 02:11:48 | Step 35063 / 100000 | TPS 4.42502 | ETA 04:04:34
Time 02:11:58 | Step 35108 / 100000 | TPS 4.49904 | ETA 04:00:23
Time 02:12:08 | Step 35153 / 100000 | TPS 4.34724 | ETA 04:08:36
Time 02:12:18 | Step 35199 / 100000 | TPS 4.43076 | ETA 04:03:45
Time 02:12:29 | Step 35245 / 100000 | TPS 4.42883 | ETA 04:03:41
Time 02:12:39 | Step 35291 / 100000 | TPS 4.42379 | ETA 04:03:47
Time 02:12:50 | Step 35337 / 100000 | TPS 4.42706 | ETA 04:03:26
Time 02:13:00 | Step 35383 / 100000 | TPS 4.4255 | ETA 04:03:21
Time 02:13:10 | Step 35429 / 100000 | TPS 4.42711 | ETA 04:03:05
Time 02:13:21 | Step 35475 / 100000 | TPS 4.42895 | ETA 04:02:48
Time 02:13:31 | Step 35521 / 100000 | TPS 4.4297 | ETA 04:02:36
Time 02:13:42 | Step 35567 / 100000 | TPS 4.42668 | ETA 04:02:35
Time 02:13:52 | Step 35613 / 100000 | TPS 4.42639 | ETA 04:02:26
Time 02:14:02 | Step 35659 / 100000 | TPS 4.42577 | ETA 04:02:17
Time 02:14:13 | Step 35705 / 100000 | TPS 4.42342 | ETA 04:02:15
Time 02:14:23 | Step 35751 / 100000 | TPS 4.43644 | ETA 04:01:22
Time 02:14:34 | Step 35797 / 100000 | TPS 4.43921 | ETA 04:01:02
Time 02:14:44 | Step 35843 / 100000 | TPS 4.43636 | ETA 04:01:01
Time 02:14:54 | Step 35889 / 100000 | TPS 4.42832 | ETA 04:01:17
Time 02:15:05 | Step 35935 / 100000 | TPS 4.43696 | ETA 04:00:38
Time 02:15:15 | Step 35981 / 100000 | TPS 4.43702 | ETA 04:00:28
Time 02:15:25 | Step 36023 / 100000 | TPS 4.12871 | ETA 04:18:15
Time 02:15:36 | Step 36069 / 100000 | TPS 4.44063 | ETA 03:59:56
Time 02:15:46 | Step 36115 / 100000 | TPS 4.43207 | ETA 04:00:14
Time 02:15:56 | Step 36161 / 100000 | TPS 4.43749 | ETA 03:59:46
Time 02:16:07 | Step 36207 / 100000 | TPS 4.43889 | ETA 03:59:31
Time 02:16:17 | Step 36253 / 100000 | TPS 4.43317 | ETA 03:59:39
Time 02:16:27 | Step 36299 / 100000 | TPS 4.42468 | ETA 03:59:56
Time 02:16:38 | Step 36345 / 100000 | TPS 4.43135 | ETA 03:59:24
Time 02:16:48 | Step 36391 / 100000 | TPS 4.43021 | ETA 03:59:18
Time 02:16:59 | Step 36437 / 100000 | TPS 4.42556 | ETA 03:59:22
Time 02:17:09 | Step 36483 / 100000 | TPS 4.42554 | ETA 03:59:12
Time 02:17:19 | Step 36529 / 100000 | TPS 4.4323 | ETA 03:58:40
Time 02:17:30 | Step 36575 / 100000 | TPS 4.41575 | ETA 03:59:23
Time 02:17:40 | Step 36621 / 100000 | TPS 4.42042 | ETA 03:58:57
Time 02:17:51 | Step 36667 / 100000 | TPS 4.43999 | ETA 03:57:44
Time 02:18:01 | Step 36713 / 100000 | TPS 4.43548 | ETA 03:57:48
Time 02:18:11 | Step 36759 / 100000 | TPS 4.42825 | ETA 03:58:01
Time 02:18:22 | Step 36805 / 100000 | TPS 4.42625 | ETA 03:57:57
Time 02:18:32 | Step 36851 / 100000 | TPS 4.43066 | ETA 03:57:32
Time 02:18:42 | Step 36897 / 100000 | TPS 4.43081 | ETA 03:57:21
Time 02:18:53 | Step 36943 / 100000 | TPS 4.43689 | ETA 03:56:51
Time 02:19:03 | Step 36989 / 100000 | TPS 4.44075 | ETA 03:56:29
Time 02:19:13 | Step 37031 / 100000 | TPS 4.12874 | ETA 04:14:11
Time 02:19:24 | Step 37077 / 100000 | TPS 4.43636 | ETA 03:56:23
Time 02:19:34 | Step 37123 / 100000 | TPS 4.43056 | ETA 03:56:31
Time 02:19:44 | Step 37169 / 100000 | TPS 4.42604 | ETA 03:56:35
Time 02:19:55 | Step 37215 / 100000 | TPS 4.4327 | ETA 03:56:04
Time 02:20:05 | Step 37261 / 100000 | TPS 4.44623 | ETA 03:55:10
Time 02:20:16 | Step 37307 / 100000 | TPS 4.4402 | ETA 03:55:19
Time 02:20:26 | Step 37354 / 100000 | TPS 4.51894 | ETA 03:51:02
Time 02:20:36 | Step 37401 / 100000 | TPS 4.5137 | ETA 03:51:08
Time 02:20:47 | Step 37447 / 100000 | TPS 4.43269 | ETA 03:55:11
Time 02:20:57 | Step 37493 / 100000 | TPS 4.43351 | ETA 03:54:58
Time 02:21:08 | Step 37539 / 100000 | TPS 4.43551 | ETA 03:54:42
Time 02:21:18 | Step 37585 / 100000 | TPS 4.43571 | ETA 03:54:31
Time 02:21:28 | Step 37631 / 100000 | TPS 4.43317 | ETA 03:54:28
Time 02:21:39 | Step 37677 / 100000 | TPS 4.43475 | ETA 03:54:13
Time 02:21:49 | Step 37723 / 100000 | TPS 4.43018 | ETA 03:54:17
Time 02:21:59 | Step 37769 / 100000 | TPS 4.42959 | ETA 03:54:08
Time 02:22:10 | Step 37815 / 100000 | TPS 4.42016 | ETA 03:54:28
Time 02:22:20 | Step 37861 / 100000 | TPS 4.43167 | ETA 03:53:41
Time 02:22:31 | Step 37907 / 100000 | TPS 4.4302 | ETA 03:53:35
Time 02:22:41 | Step 37953 / 100000 | TPS 4.42786 | ETA 03:53:32
Time 02:22:51 | Step 37999 / 100000 | TPS 4.42728 | ETA 03:53:24
Time 02:23:02 | Step 38041 / 100000 | TPS 4.12426 | ETA 04:10:23
Time 02:23:12 | Step 38087 / 100000 | TPS 4.42291 | ETA 03:53:18
Time 02:23:22 | Step 38133 / 100000 | TPS 4.4308 | ETA 03:52:42
Time 02:23:33 | Step 38179 / 100000 | TPS 4.43923 | ETA 03:52:06
Time 02:23:43 | Step 38225 / 100000 | TPS 4.43457 | ETA 03:52:10
Time 02:23:53 | Step 38271 / 100000 | TPS 4.4331 | ETA 03:52:04
Time 02:24:04 | Step 38317 / 100000 | TPS 4.43524 | ETA 03:51:47
Time 02:24:14 | Step 38363 / 100000 | TPS 4.43192 | ETA 03:51:47
Time 02:24:25 | Step 38409 / 100000 | TPS 4.42427 | ETA 03:52:01
Time 02:24:35 | Step 38455 / 100000 | TPS 4.43983 | ETA 03:51:02
Time 02:24:45 | Step 38501 / 100000 | TPS 4.43937 | ETA 03:50:53
Time 02:24:56 | Step 38547 / 100000 | TPS 4.43593 | ETA 03:50:53
Time 02:25:06 | Step 38593 / 100000 | TPS 4.43155 | ETA 03:50:56
Time 02:25:16 | Step 38640 / 100000 | TPS 4.51605 | ETA 03:46:27
Time 02:25:27 | Step 38686 / 100000 | TPS 4.43334 | ETA 03:50:30
Time 02:25:37 | Step 38731 / 100000 | TPS 4.34739 | ETA 03:54:53
Time 02:25:48 | Step 38777 / 100000 | TPS 4.43986 | ETA 03:49:49
Time 02:25:58 | Step 38823 / 100000 | TPS 4.434 | ETA 03:49:57
Time 02:26:08 | Step 38869 / 100000 | TPS 4.42798 | ETA 03:50:05
Time 02:26:19 | Step 38915 / 100000 | TPS 4.42975 | ETA 03:49:49
Time 02:26:29 | Step 38961 / 100000 | TPS 4.43183 | ETA 03:49:32
Time 02:26:39 | Step 39003 / 100000 | TPS 4.12765 | ETA 04:06:17
Time 02:26:50 | Step 39049 / 100000 | TPS 4.43951 | ETA 03:48:49
Time 02:27:00 | Step 39095 / 100000 | TPS 4.43024 | ETA 03:49:07
Time 02:27:10 | Step 39141 / 100000 | TPS 4.42963 | ETA 03:48:59
Time 02:27:21 | Step 39187 / 100000 | TPS 4.43358 | ETA 03:48:36
Time 02:27:31 | Step 39233 / 100000 | TPS 4.43125 | ETA 03:48:33
Time 02:27:42 | Step 39279 / 100000 | TPS 4.42959 | ETA 03:48:28
Time 02:27:52 | Step 39325 / 100000 | TPS 4.43233 | ETA 03:48:09
Time 02:28:02 | Step 39371 / 100000 | TPS 4.43589 | ETA 03:47:47
Time 02:28:13 | Step 39417 / 100000 | TPS 4.43492 | ETA 03:47:40
Time 02:28:23 | Step 39464 / 100000 | TPS 4.5121 | ETA 03:43:36
Time 02:28:33 | Step 39510 / 100000 | TPS 4.43344 | ETA 03:47:24
Time 02:28:44 | Step 39556 / 100000 | TPS 4.43476 | ETA 03:47:09
Time 02:28:54 | Step 39601 / 100000 | TPS 4.34499 | ETA 03:51:40
Time 02:29:05 | Step 39647 / 100000 | TPS 4.44422 | ETA 03:46:20
Time 02:29:15 | Step 39693 / 100000 | TPS 4.44018 | ETA 03:46:22
Time 02:29:25 | Step 39739 / 100000 | TPS 4.43184 | ETA 03:46:37
Time 02:29:36 | Step 39785 / 100000 | TPS 4.43524 | ETA 03:46:16
Time 02:29:46 | Step 39831 / 100000 | TPS 4.43225 | ETA 03:46:15
Time 02:29:56 | Step 39877 / 100000 | TPS 4.4341 | ETA 03:45:59
Time 02:30:07 | Step 39923 / 100000 | TPS 4.43007 | ETA 03:46:01
Time 02:30:17 | Step 39969 / 100000 | TPS 4.44171 | ETA 03:45:15
Time 02:30:27 | Step 40011 / 100000 | TPS 4.14156 | ETA 04:01:24
Time 02:30:38 | Step 40057 / 100000 | TPS 4.4353 | ETA 03:45:14
Time 02:30:48 | Step 40103 / 100000 | TPS 4.43058 | ETA 03:45:18
Time 02:30:58 | Step 40149 / 100000 | TPS 4.43433 | ETA 03:44:57
Time 02:31:09 | Step 40195 / 100000 | TPS 4.42543 | ETA 03:45:13
Time 02:31:19 | Step 40241 / 100000 | TPS 4.4343 | ETA 03:44:36
Time 02:31:30 | Step 40287 / 100000 | TPS 4.43492 | ETA 03:44:24
Time 02:31:40 | Step 40333 / 100000 | TPS 4.43559 | ETA 03:44:11
Time 02:31:50 | Step 40379 / 100000 | TPS 4.44016 | ETA 03:43:47
Time 02:32:01 | Step 40425 / 100000 | TPS 4.43429 | ETA 03:43:55
Time 02:32:11 | Step 40465 / 100000 | TPS 3.90527 | ETA 04:14:04
Time 02:32:21 | Step 40505 / 100000 | TPS 3.86223 | ETA 04:16:44
Time 02:32:32 | Step 40551 / 100000 | TPS 4.44047 | ETA 03:43:08
Time 02:32:42 | Step 40597 / 100000 | TPS 4.43402 | ETA 03:43:17
Time 02:32:52 | Step 40643 / 100000 | TPS 4.43452 | ETA 03:43:05
Time 02:33:03 | Step 40689 / 100000 | TPS 4.43721 | ETA 03:42:46
Time 02:33:13 | Step 40735 / 100000 | TPS 4.43621 | ETA 03:42:39
Time 02:33:23 | Step 40781 / 100000 | TPS 4.43016 | ETA 03:42:47
Time 02:33:34 | Step 40827 / 100000 | TPS 4.42729 | ETA 03:42:45
Time 02:33:44 | Step 40873 / 100000 | TPS 4.43911 | ETA 03:41:59
Time 02:33:55 | Step 40919 / 100000 | TPS 4.43613 | ETA 03:41:58
Time 02:34:05 | Step 40965 / 100000 | TPS 4.43444 | ETA 03:41:52
Time 02:34:15 | Step 41007 / 100000 | TPS 4.09981 | ETA 03:59:49
Time 02:34:26 | Step 41053 / 100000 | TPS 4.43202 | ETA 03:41:40
Time 02:34:36 | Step 41099 / 100000 | TPS 4.43302 | ETA 03:41:26
Time 02:34:46 | Step 41145 / 100000 | TPS 4.43119 | ETA 03:41:21
Time 02:34:57 | Step 41191 / 100000 | TPS 4.43746 | ETA 03:40:52
Time 02:35:07 | Step 41237 / 100000 | TPS 4.43214 | ETA 03:40:58
Time 02:35:17 | Step 41283 / 100000 | TPS 4.42726 | ETA 03:41:02
Time 02:35:28 | Step 41329 / 100000 | TPS 4.42372 | ETA 03:41:02
Time 02:35:38 | Step 41375 / 100000 | TPS 4.42396 | ETA 03:40:51
Time 02:35:49 | Step 41421 / 100000 | TPS 4.4278 | ETA 03:40:29
Time 02:35:59 | Step 41467 / 100000 | TPS 4.43984 | ETA 03:39:43
Time 02:36:09 | Step 41513 / 100000 | TPS 4.43311 | ETA 03:39:53
Time 02:36:20 | Step 41559 / 100000 | TPS 4.43332 | ETA 03:39:42
Time 02:36:30 | Step 41605 / 100000 | TPS 4.43035 | ETA 03:39:40
Time 02:36:41 | Step 41651 / 100000 | TPS 4.42343 | ETA 03:39:50
Time 02:36:51 | Step 41697 / 100000 | TPS 4.42809 | ETA 03:39:26
Time 02:37:01 | Step 41743 / 100000 | TPS 4.42326 | ETA 03:39:30
Time 02:37:12 | Step 41789 / 100000 | TPS 4.43117 | ETA 03:38:56
Time 02:37:22 | Step 41835 / 100000 | TPS 4.43161 | ETA 03:38:45
Time 02:37:32 | Step 41881 / 100000 | TPS 4.42755 | ETA 03:38:46
Time 02:37:43 | Step 41927 / 100000 | TPS 4.42748 | ETA 03:38:36
Time 02:37:53 | Step 41973 / 100000 | TPS 4.42303 | ETA 03:38:39
Time 02:38:03 | Step 42015 / 100000 | TPS 4.12114 | ETA 03:54:30
Time 02:38:14 | Step 42061 / 100000 | TPS 4.43313 | ETA 03:37:49
Time 02:38:24 | Step 42107 / 100000 | TPS 4.42997 | ETA 03:37:48
Time 02:38:35 | Step 42153 / 100000 | TPS 4.42616 | ETA 03:37:49
Time 02:38:45 | Step 42199 / 100000 | TPS 4.42617 | ETA 03:37:38
Time 02:38:55 | Step 42245 / 100000 | TPS 4.42256 | ETA 03:37:39
Time 02:39:06 | Step 42291 / 100000 | TPS 4.42412 | ETA 03:37:24
Time 02:39:16 | Step 42337 / 100000 | TPS 4.42686 | ETA 03:37:05
Time 02:39:27 | Step 42383 / 100000 | TPS 4.43141 | ETA 03:36:41
Time 02:39:37 | Step 42429 / 100000 | TPS 4.42829 | ETA 03:36:40
Time 02:39:47 | Step 42475 / 100000 | TPS 4.42677 | ETA 03:36:34
Time 02:39:58 | Step 42521 / 100000 | TPS 4.4258 | ETA 03:36:27
Time 02:40:08 | Step 42567 / 100000 | TPS 4.42471 | ETA 03:36:20
Time 02:40:19 | Step 42613 / 100000 | TPS 4.42263 | ETA 03:36:15
Time 02:40:29 | Step 42660 / 100000 | TPS 4.52205 | ETA 03:31:20
Time 02:40:39 | Step 42706 / 100000 | TPS 4.42854 | ETA 03:35:37
Time 02:40:50 | Step 42752 / 100000 | TPS 4.42783 | ETA 03:35:29
Time 02:41:00 | Step 42798 / 100000 | TPS 4.41787 | ETA 03:35:47
Time 02:41:11 | Step 42844 / 100000 | TPS 4.42068 | ETA 03:35:29
Time 02:41:21 | Step 42890 / 100000 | TPS 4.41706 | ETA 03:35:29
Time 02:41:31 | Step 42935 / 100000 | TPS 4.34671 | ETA 03:38:48
Time 02:41:42 | Step 42981 / 100000 | TPS 4.429 | ETA 03:34:34
Time 02:41:52 | Step 43023 / 100000 | TPS 4.12337 | ETA 03:50:18
Time 02:42:02 | Step 43069 / 100000 | TPS 4.42792 | ETA 03:34:17
Time 02:42:13 | Step 43115 / 100000 | TPS 4.42427 | ETA 03:34:17
Time 02:42:23 | Step 43161 / 100000 | TPS 4.42509 | ETA 03:34:04
Time 02:42:33 | Step 43207 / 100000 | TPS 4.42431 | ETA 03:33:56
Time 02:42:44 | Step 43253 / 100000 | TPS 4.44007 | ETA 03:33:00
Time 02:42:54 | Step 43299 / 100000 | TPS 4.43836 | ETA 03:32:55
Time 02:43:05 | Step 43345 / 100000 | TPS 4.43415 | ETA 03:32:56
Time 02:43:15 | Step 43391 / 100000 | TPS 4.43124 | ETA 03:32:54
Time 02:43:25 | Step 43437 / 100000 | TPS 4.43039 | ETA 03:32:47
Time 02:43:36 | Step 43483 / 100000 | TPS 4.42345 | ETA 03:32:56
Time 02:43:46 | Step 43529 / 100000 | TPS 4.42175 | ETA 03:32:51
Time 02:43:56 | Step 43575 / 100000 | TPS 4.42956 | ETA 03:32:18
Time 02:44:07 | Step 43621 / 100000 | TPS 4.4282 | ETA 03:32:11
Time 02:44:17 | Step 43667 / 100000 | TPS 4.42636 | ETA 03:32:06
Time 02:44:28 | Step 43713 / 100000 | TPS 4.42073 | ETA 03:32:12
Time 02:44:38 | Step 43759 / 100000 | TPS 4.42705 | ETA 03:31:43
Time 02:44:48 | Step 43804 / 100000 | TPS 4.49681 | ETA 03:28:16
Time 02:44:58 | Step 43849 / 100000 | TPS 4.34322 | ETA 03:35:28
Time 02:45:09 | Step 43895 / 100000 | TPS 4.43014 | ETA 03:31:04
Time 02:45:19 | Step 43941 / 100000 | TPS 4.42975 | ETA 03:30:55
Time 02:45:30 | Step 43987 / 100000 | TPS 4.42551 | ETA 03:30:56
Time 02:45:40 | Step 44029 / 100000 | TPS 4.1122 | ETA 03:46:50
Time 02:45:50 | Step 44075 / 100000 | TPS 4.41868 | ETA 03:30:56
Time 02:46:01 | Step 44121 / 100000 | TPS 4.4203 | ETA 03:30:41
Time 02:46:11 | Step 44167 / 100000 | TPS 4.43405 | ETA 03:29:51
Time 02:46:21 | Step 44213 / 100000 | TPS 4.42582 | ETA 03:30:04
Time 02:46:32 | Step 44259 / 100000 | TPS 4.42364 | ETA 03:30:00
Time 02:46:42 | Step 44305 / 100000 | TPS 4.42368 | ETA 03:29:50
Time 02:46:53 | Step 44351 / 100000 | TPS 4.41673 | ETA 03:29:59
Time 02:47:03 | Step 44397 / 100000 | TPS 4.41318 | ETA 03:29:59
Time 02:47:13 | Step 44443 / 100000 | TPS 4.42683 | ETA 03:29:10
Time 02:47:24 | Step 44489 / 100000 | TPS 4.4242 | ETA 03:29:07
Time 02:47:34 | Step 44535 / 100000 | TPS 4.42229 | ETA 03:29:02
Time 02:47:45 | Step 44581 / 100000 | TPS 4.4253 | ETA 03:28:43
Time 02:47:55 | Step 44627 / 100000 | TPS 4.41733 | ETA 03:28:55
Time 02:48:05 | Step 44673 / 100000 | TPS 4.59625 | ETA 03:20:37
Time 02:48:15 | Step 44717 / 100000 | TPS 4.25417 | ETA 03:36:35
Time 02:48:26 | Step 44763 / 100000 | TPS 4.43692 | ETA 03:27:29
Time 02:48:36 | Step 44809 / 100000 | TPS 4.42509 | ETA 03:27:52
Time 02:48:47 | Step 44855 / 100000 | TPS 4.41875 | ETA 03:27:59
Time 02:48:57 | Step 44901 / 100000 | TPS 4.42455 | ETA 03:27:33
Time 02:49:07 | Step 44947 / 100000 | TPS 4.42117 | ETA 03:27:32
Time 02:49:18 | Step 44993 / 100000 | TPS 4.41633 | ETA 03:27:35
Time 02:49:28 | Step 45035 / 100000 | TPS 4.11994 | ETA 03:42:21
Time 02:49:38 | Step 45081 / 100000 | TPS 4.41854 | ETA 03:27:09
Time 02:49:49 | Step 45127 / 100000 | TPS 4.41746 | ETA 03:27:01
Time 02:49:59 | Step 45173 / 100000 | TPS 4.41943 | ETA 03:26:45
Time 02:50:10 | Step 45219 / 100000 | TPS 4.41771 | ETA 03:26:40
Time 02:50:20 | Step 45265 / 100000 | TPS 4.4149 | ETA 03:26:37
Time 02:50:30 | Step 45310 / 100000 | TPS 4.4947 | ETA 03:22:47
Time 02:50:40 | Step 45355 / 100000 | TPS 4.33495 | ETA 03:30:05
Time 02:50:51 | Step 45401 / 100000 | TPS 4.42506 | ETA 03:25:38
Time 02:51:01 | Step 45447 / 100000 | TPS 4.41408 | ETA 03:25:58
Time 02:51:12 | Step 45493 / 100000 | TPS 4.41497 | ETA 03:25:45
Time 02:51:22 | Step 45538 / 100000 | TPS 4.49638 | ETA 03:21:52
Time 02:51:32 | Step 45583 / 100000 | TPS 4.32509 | ETA 03:29:41
Time 02:51:42 | Step 45628 / 100000 | TPS 4.49763 | ETA 03:21:29
Time 02:51:52 | Step 45673 / 100000 | TPS 4.33208 | ETA 03:29:00
Time 02:52:02 | Step 45718 / 100000 | TPS 4.49923 | ETA 03:21:04
Time 02:52:13 | Step 45763 / 100000 | TPS 4.32832 | ETA 03:28:50
Time 02:52:23 | Step 45808 / 100000 | TPS 4.49496 | ETA 03:20:56
Time 02:52:33 | Step 45853 / 100000 | TPS 4.32857 | ETA 03:28:29
Time 02:52:43 | Step 45898 / 100000 | TPS 4.49359 | ETA 03:20:39
Time 02:52:54 | Step 45943 / 100000 | TPS 4.33207 | ETA 03:27:58
Time 02:53:04 | Step 45989 / 100000 | TPS 4.41423 | ETA 03:23:55
Time 02:53:14 | Step 46031 / 100000 | TPS 4.10714 | ETA 03:39:00
Time 02:53:24 | Step 46076 / 100000 | TPS 4.49851 | ETA 03:19:47
Time 02:53:35 | Step 46121 / 100000 | TPS 4.32925 | ETA 03:27:25
Time 02:53:45 | Step 46166 / 100000 | TPS 4.49677 | ETA 03:19:31
Time 02:53:55 | Step 46211 / 100000 | TPS 4.33076 | ETA 03:27:00
Time 02:54:06 | Step 46257 / 100000 | TPS 4.42672 | ETA 03:22:20
Time 02:54:16 | Step 46303 / 100000 | TPS 4.4193 | ETA 03:22:30
Time 02:54:26 | Step 46349 / 100000 | TPS 4.41813 | ETA 03:22:23
Time 02:54:36 | Step 46394 / 100000 | TPS 4.4966 | ETA 03:18:41
Time 02:54:47 | Step 46439 / 100000 | TPS 4.33219 | ETA 03:26:03
Time 02:54:57 | Step 46484 / 100000 | TPS 4.49518 | ETA 03:18:25
Time 02:55:07 | Step 46529 / 100000 | TPS 4.32927 | ETA 03:25:51
Time 02:55:18 | Step 46575 / 100000 | TPS 4.42223 | ETA 03:21:21
Time 02:55:28 | Step 46621 / 100000 | TPS 4.4153 | ETA 03:21:29
Time 02:55:38 | Step 46667 / 100000 | TPS 4.41781 | ETA 03:21:12
Time 02:55:48 | Step 46712 / 100000 | TPS 4.49956 | ETA 03:17:22
Time 02:55:59 | Step 46757 / 100000 | TPS 4.33377 | ETA 03:24:45
Time 02:56:09 | Step 46802 / 100000 | TPS 4.4914 | ETA 03:17:24
Time 02:56:19 | Step 46847 / 100000 | TPS 4.33402 | ETA 03:24:24
Time 02:56:29 | Step 46893 / 100000 | TPS 4.58599 | ETA 03:13:00
Time 02:56:40 | Step 46938 / 100000 | TPS 4.33216 | ETA 03:24:08
Time 02:56:50 | Step 46984 / 100000 | TPS 4.41538 | ETA 03:20:07
Time 02:57:00 | Step 47026 / 100000 | TPS 4.11793 | ETA 03:34:24
Time 02:57:10 | Step 47071 / 100000 | TPS 4.49522 | ETA 03:16:14
Time 02:57:21 | Step 47115 / 100000 | TPS 4.24093 | ETA 03:27:50
Time 02:57:31 | Step 47161 / 100000 | TPS 4.41695 | ETA 03:19:22
Time 02:57:41 | Step 47207 / 100000 | TPS 4.41444 | ETA 03:19:19
Time 02:57:52 | Step 47253 / 100000 | TPS 4.41722 | ETA 03:19:01
Time 02:58:02 | Step 47299 / 100000 | TPS 4.42021 | ETA 03:18:42
Time 02:58:12 | Step 47344 / 100000 | TPS 4.4967 | ETA 03:15:09
Time 02:58:22 | Step 47389 / 100000 | TPS 4.4922 | ETA 03:15:11
Time 02:58:32 | Step 47434 / 100000 | TPS 4.49623 | ETA 03:14:51
Time 02:58:43 | Step 47479 / 100000 | TPS 4.33392 | ETA 03:21:58
Time 02:58:53 | Step 47524 / 100000 | TPS 4.4937 | ETA 03:14:37
Time 02:59:03 | Step 47569 / 100000 | TPS 4.32612 | ETA 03:21:59
Time 02:59:13 | Step 47614 / 100000 | TPS 4.49324 | ETA 03:14:18
Time 02:59:23 | Step 47659 / 100000 | TPS 4.3219 | ETA 03:21:50
Time 02:59:33 | Step 47703 / 100000 | TPS 4.39405 | ETA 03:18:21
Time 02:59:44 | Step 47748 / 100000 | TPS 4.49608 | ETA 03:13:41
Time 02:59:54 | Step 47793 / 100000 | TPS 4.32513 | ETA 03:21:10
Time 03:00:04 | Step 47838 / 100000 | TPS 4.49584 | ETA 03:13:22
Time 03:00:14 | Step 47883 / 100000 | TPS 4.32371 | ETA 03:20:53
Time 03:00:24 | Step 47928 / 100000 | TPS 4.49544 | ETA 03:13:03
Time 03:00:35 | Step 47973 / 100000 | TPS 4.32325 | ETA 03:20:34
Time 03:00:45 | Step 48015 / 100000 | TPS 4.10204 | ETA 03:31:12
Time 03:00:55 | Step 48060 / 100000 | TPS 4.49621 | ETA 03:12:31
Time 03:01:05 | Step 48105 / 100000 | TPS 4.32454 | ETA 03:20:00
Time 03:01:15 | Step 48150 / 100000 | TPS 4.48923 | ETA 03:12:29
Time 03:01:25 | Step 48195 / 100000 | TPS 4.49127 | ETA 03:12:14
Time 03:01:35 | Step 48239 / 100000 | TPS 4.3995 | ETA 03:16:05
Time 03:01:45 | Step 48283 / 100000 | TPS 4.39619 | ETA 03:16:04
Time 03:01:56 | Step 48327 / 100000 | TPS 4.23608 | ETA 03:23:18
Time 03:02:06 | Step 48372 / 100000 | TPS 4.49264 | ETA 03:11:31
Time 03:02:16 | Step 48416 / 100000 | TPS 4.39818 | ETA 03:15:28
Time 03:02:26 | Step 48461 / 100000 | TPS 4.32014 | ETA 03:18:49
Time 03:02:36 | Step 48506 / 100000 | TPS 4.49027 | ETA 03:11:07
Time 03:02:47 | Step 48551 / 100000 | TPS 4.31842 | ETA 03:18:33
Time 03:02:57 | Step 48595 / 100000 | TPS 4.3996 | ETA 03:14:44
Time 03:03:07 | Step 48640 / 100000 | TPS 4.49382 | ETA 03:10:29
Time 03:03:17 | Step 48685 / 100000 | TPS 4.49043 | ETA 03:10:27
Time 03:03:27 | Step 48730 / 100000 | TPS 4.49181 | ETA 03:10:14
Time 03:03:37 | Step 48775 / 100000 | TPS 4.31689 | ETA 03:17:46
Time 03:03:47 | Step 48820 / 100000 | TPS 4.48729 | ETA 03:10:05
Time 03:03:58 | Step 48865 / 100000 | TPS 4.32374 | ETA 03:17:06
Time 03:04:08 | Step 48910 / 100000 | TPS 4.48696 | ETA 03:09:46
Time 03:04:18 | Step 48954 / 100000 | TPS 4.24633 | ETA 03:20:21
Time 03:04:28 | Step 49000 / 100000 | TPS 4.42031 | ETA 03:12:17
Time 03:04:39 | Step 49042 / 100000 | TPS 4.10957 | ETA 03:26:39
Time 03:04:49 | Step 49087 / 100000 | TPS 4.4969 | ETA 03:08:41
Time 03:04:59 | Step 49131 / 100000 | TPS 4.39783 | ETA 03:12:46
Time 03:05:09 | Step 49176 / 100000 | TPS 4.3213 | ETA 03:16:01
Time 03:05:19 | Step 49221 / 100000 | TPS 4.32282 | ETA 03:15:46
Time 03:05:30 | Step 49267 / 100000 | TPS 4.41491 | ETA 03:11:31
Time 03:05:40 | Step 49311 / 100000 | TPS 4.39953 | ETA 03:12:01
Time 03:05:50 | Step 49356 / 100000 | TPS 4.491 | ETA 03:07:56
Time 03:06:00 | Step 49401 / 100000 | TPS 4.32052 | ETA 03:15:11
Time 03:06:10 | Step 49445 / 100000 | TPS 4.3998 | ETA 03:11:30
Time 03:06:20 | Step 49490 / 100000 | TPS 4.47849 | ETA 03:07:58
Time 03:06:30 | Step 49535 / 100000 | TPS 4.48563 | ETA 03:07:30
Time 03:06:40 | Step 49580 / 100000 | TPS 4.49791 | ETA 03:06:49
Traceback (most recent call last):
  File "Equilibrium_T_5_0.py", line 108, in <module>
    hoomd.run(steps)
  File "/usr/local/lib/python3.5/dist-packages/hoomd/__init__.py", line 194, in run
    context.current.system.run(int(tsteps), callback_period, callback, limit_hours, int(limit_multiple));
RuntimeError: Error updating neighborlist
