[33mWARNING: Skipping user bind, non existent bind point (file) in container: '/usr/bin/nvidia-smi'
[0m[33mWARNING: Skipping user bind, non existent bind point (file) in container: '/usr/bin/nvidia-debugdump'
[0m[33mWARNING: Skipping user bind, non existent bind point (file) in container: '/usr/bin/nvidia-persistenced'
[0m[33mWARNING: Skipping user bind, non existent bind point (file) in container: '/usr/bin/nvidia-cuda-mps-control'
[0m[33mWARNING: Skipping user bind, non existent bind point (file) in container: '/usr/bin/nvidia-cuda-mps-server'
[0m**ERROR**: nlist.tree(): Particle 904 is out of bounds (x: 51.5815, y: 495.864, z: 735.717, fx: 2.03339, fy: 15.2408, fz:22.371)
HOOMD-blue 2.3.5 CUDA (8.0) DOUBLE HPMC_MIXED TBB SSE SSE2 
Compiled: 10/08/18
Copyright 2009-2018 The Regents of the University of Michigan.
-----
You are using HOOMD-blue. Please cite the following:
* J A Anderson, C D Lorenz, and A Travesset. "General purpose molecular dynamics
  simulations fully implemented on graphics processing units", Journal of
  Computational Physics 227 (2008) 5342--5359
* J Glaser, T D Nguyen, J A Anderson, P Liu, F Spiga, J A Millan, D C Morse, and
  S C Glotzer. "Strong scaling of general-purpose molecular dynamics simulations
  on GPUs", Computer Physics Communications 192 (2015) 97--107
-----
notice(2): This system is not compute exclusive, using local rank to select GPUs
HOOMD-blue is running on the following GPU(s):
 [0]            Tesla K20m  13 SM_3.5 @ 0.706 GHz, 4743 MiB DRAM
Equilibrium_T_6_8.py:027  |  system = hoomd.init.read_gsd("T_CM_6.6_P_1.4_ramp.gsd",frame = -1)
notice(2): Group "all" created containing 1000 particles
Equilibrium_T_6_8.py:031  |  rigid = hoomd.md.constrain.rigid();
notice(2): constrain.rigid(): Creating 1000 rigid bodies (adding 8000 particles)
Equilibrium_T_6_8.py:043  |  nl = hoomd.md.nlist.tree();
-----
You are using tree neighbor lists. Please cite the following:
* M P Howard, J A Anderson, A Nikoubashman, S C Glotzer, and A Z
  Panagiotopoulos. "Efficient neighbor list calculation for molecular simulation
  of colloidal systems using graphics processing units", Computer Physics
  Communications 203 (2016) 45--52
-----
Equilibrium_T_6_8.py:045  |  lj = hoomd.md.pair.lj(r_cut = 3.5, nlist = nl)
Equilibrium_T_6_8.py:046  |  lj.set_params(mode = 'shift')
Equilibrium_T_6_8.py:050  |  lj.pair_coeff.set('M','M', epsilon = 1.0, sigma = 1.0)
Equilibrium_T_6_8.py:051  |  lj.pair_coeff.set('A','A', epsilon = 1.0, sigma = 1.0)
Equilibrium_T_6_8.py:052  |  lj.pair_coeff.set('M','A', epsilon = 1.0, sigma = 1.0)
Equilibrium_T_6_8.py:056  |  hoomd.md.integrate.mode_standard(dt = 0.005);
Equilibrium_T_6_8.py:060  |  mesogens = hoomd.group.rigid_center();
notice(2): Group "rigid_center" created containing 1000 particles
Equilibrium_T_6_8.py:068  |  npt = hoomd.md.integrate.npt(group = mesogens, kT = t_max, tau = 14.0, tauP = 14.0, P = p_max);
Equilibrium_T_6_8.py:077  |  log = hoomd.analyze.log(filename = log_file,
                         quantities = ['num_particles',
                                     'ndof',
                                     'translational_ndof',
                                     'rotational_ndof',
                                     'potential_energy',
                                     'kinetic_energy',
                                     'translational_kinetic_energy',
                                     'rotational_kinetic_energy',
                                     'temperature',
                                     'pressure',
                                      'volume'],
                         period = 1e3,
                         overwrite = True);
Equilibrium_T_6_8.py:093  |                 group = hoomd.group.all(),
Equilibrium_T_6_8.py:091  |  gsd = hoomd.dump.gsd(gsd_file,
               period = 1e3,
               group = hoomd.group.all(),
               overwrite = True); 
Equilibrium_T_6_8.py:095  |  meso_gsd = hoomd.dump.gsd(meso_gsd_file,
               period = 1e3,
               group = mesogens,
               overwrite = True); 
Equilibrium_T_6_8.py:104  |  hoomd.run(steps)
notice(2): -- Neighborlist exclusion statistics -- :
notice(2): Particles with 0 exclusions             : 9000
notice(2): Neighbors included by diameter          : no
notice(2): Neighbors excluded when in the same body: yes
** starting run **
Time 00:00:10 | Step 1648444 / 1846000 | TPS 244.397 | ETA 00:13:28
Time 00:00:20 | Step 1651130 / 1846000 | TPS 268.502 | ETA 00:12:05
Time 00:00:30 | Step 1653901 / 1846000 | TPS 276.972 | ETA 00:11:33
Time 00:00:40 | Step 1656587 / 1846000 | TPS 268.464 | ETA 00:11:45
Time 00:00:50 | Step 1659311 / 1846000 | TPS 272.337 | ETA 00:11:25
Time 00:01:00 | Step 1662069 / 1846000 | TPS 275.622 | ETA 00:11:07
Time 00:01:10 | Step 1664754 / 1846000 | TPS 268.485 | ETA 00:11:15
Time 00:01:20 | Step 1667471 / 1846000 | TPS 271.606 | ETA 00:10:57
Time 00:01:30 | Step 1670241 / 1846000 | TPS 276.909 | ETA 00:10:34
Time 00:01:40 | Step 1672943 / 1846000 | TPS 270.189 | ETA 00:10:40
Time 00:01:50 | Step 1675659 / 1846000 | TPS 271.591 | ETA 00:10:27
Time 00:02:00 | Step 1678433 / 1846000 | TPS 277.37 | ETA 00:10:04
Time 00:02:10 | Step 1681176 / 1846000 | TPS 274.124 | ETA 00:10:01
Time 00:02:20 | Step 1683896 / 1846000 | TPS 271.846 | ETA 00:09:56
Time 00:02:30 | Step 1686607 / 1846000 | TPS 270.982 | ETA 00:09:48
Time 00:02:40 | Step 1689319 / 1846000 | TPS 271.047 | ETA 00:09:38
Time 00:02:50 | Step 1692007 / 1846000 | TPS 268.658 | ETA 00:09:33
Time 00:03:00 | Step 1694743 / 1846000 | TPS 273.492 | ETA 00:09:13
Time 00:03:10 | Step 1697530 / 1846000 | TPS 278.664 | ETA 00:08:52
Time 00:03:20 | Step 1700343 / 1846000 | TPS 281.174 | ETA 00:08:38
Time 00:03:30 | Step 1703092 / 1846000 | TPS 274.745 | ETA 00:08:40
Time 00:03:40 | Step 1705791 / 1846000 | TPS 269.783 | ETA 00:08:39
Time 00:03:50 | Step 1708501 / 1846000 | TPS 270.866 | ETA 00:08:27
Time 00:04:00 | Step 1711212 / 1846000 | TPS 271.046 | ETA 00:08:17
Time 00:04:10 | Step 1713886 / 1846000 | TPS 267.398 | ETA 00:08:14
Time 00:04:20 | Step 1716561 / 1846000 | TPS 267.429 | ETA 00:08:04
Time 00:04:30 | Step 1719258 / 1846000 | TPS 269.537 | ETA 00:07:50
Time 00:04:40 | Step 1722020 / 1846000 | TPS 276.036 | ETA 00:07:29
Time 00:04:50 | Step 1724746 / 1846000 | TPS 272.572 | ETA 00:07:24
Time 00:05:00 | Step 1727409 / 1846000 | TPS 266.195 | ETA 00:07:25
Time 00:05:10 | Step 1730084 / 1846000 | TPS 267.324 | ETA 00:07:13
Time 00:05:20 | Step 1732780 / 1846000 | TPS 269.526 | ETA 00:07:00
Traceback (most recent call last):
  File "Equilibrium_T_6_8.py", line 104, in <module>
    hoomd.run(steps)
  File "/usr/local/lib/python3.5/dist-packages/hoomd/__init__.py", line 194, in run
    context.current.system.run(int(tsteps), callback_period, callback, limit_hours, int(limit_multiple));
RuntimeError: Error updating neighborlist
