[33mWARNING: Skipping user bind, non existent bind point (file) in container: '/usr/bin/nvidia-smi'
[0m[33mWARNING: Skipping user bind, non existent bind point (file) in container: '/usr/bin/nvidia-debugdump'
[0m[33mWARNING: Skipping user bind, non existent bind point (file) in container: '/usr/bin/nvidia-persistenced'
[0m[33mWARNING: Skipping user bind, non existent bind point (file) in container: '/usr/bin/nvidia-cuda-mps-control'
[0m[33mWARNING: Skipping user bind, non existent bind point (file) in container: '/usr/bin/nvidia-cuda-mps-server'
[0mHOOMD-blue 2.3.5 CUDA (8.0) DOUBLE HPMC_MIXED TBB SSE SSE2 
Compiled: 10/08/18
Copyright 2009-2018 The Regents of the University of Michigan.
-----
You are using HOOMD-blue. Please cite the following:
* J A Anderson, C D Lorenz, and A Travesset. "General purpose molecular dynamics
  simulations fully implemented on graphics processing units", Journal of
  Computational Physics 227 (2008) 5342--5359
* J Glaser, T D Nguyen, J A Anderson, P Liu, F Spiga, J A Millan, D C Morse, and
  S C Glotzer. "Strong scaling of general-purpose molecular dynamics simulations
  on GPUs", Computer Physics Communications 192 (2015) 97--107
-----
notice(2): This system is not compute exclusive, using local rank to select GPUs
HOOMD-blue is running on the following GPU(s):
 [0]            Tesla K20m  13 SM_3.5 @ 0.706 GHz, 4743 MiB DRAM
Equilibrium_T_6_8.py:027  |  system = hoomd.init.read_gsd("T_CM_6.8_P_1.4_ramp.gsd",frame = -1)
notice(2): Group "all" created containing 1000 particles
Equilibrium_T_6_8.py:031  |  rigid = hoomd.md.constrain.rigid();
notice(2): constrain.rigid(): Creating 1000 rigid bodies (adding 8000 particles)
Equilibrium_T_6_8.py:043  |  nl = hoomd.md.nlist.tree();
-----
You are using tree neighbor lists. Please cite the following:
* M P Howard, J A Anderson, A Nikoubashman, S C Glotzer, and A Z
  Panagiotopoulos. "Efficient neighbor list calculation for molecular simulation
  of colloidal systems using graphics processing units", Computer Physics
  Communications 203 (2016) 45--52
-----
Equilibrium_T_6_8.py:045  |  lj = hoomd.md.pair.lj(r_cut = 3.5, nlist = nl)
Equilibrium_T_6_8.py:046  |  lj.set_params(mode = 'shift')
Equilibrium_T_6_8.py:050  |  lj.pair_coeff.set('M','M', epsilon = 1.0, sigma = 1.0)
Equilibrium_T_6_8.py:051  |  lj.pair_coeff.set('A','A', epsilon = 1.0, sigma = 1.0)
Equilibrium_T_6_8.py:052  |  lj.pair_coeff.set('M','A', epsilon = 1.0, sigma = 1.0)
Equilibrium_T_6_8.py:056  |  hoomd.md.integrate.mode_standard(dt = 0.005);
Equilibrium_T_6_8.py:060  |  mesogens = hoomd.group.rigid_center();
notice(2): Group "rigid_center" created containing 1000 particles
Equilibrium_T_6_8.py:068  |  npt = hoomd.md.integrate.npt(group = mesogens, kT = t_max, tau = 14.0, tauP = 14.0, P = p_max);
Equilibrium_T_6_8.py:077  |  log = hoomd.analyze.log(filename = log_file,
                         quantities = ['num_particles',
                                     'ndof',
                                     'translational_ndof',
                                     'rotational_ndof',
                                     'potential_energy',
                                     'kinetic_energy',
                                     'translational_kinetic_energy',
                                     'rotational_kinetic_energy',
                                     'temperature',
                                     'pressure',
                                      'volume'],
                         period = 1e3,
                         overwrite = True);
Equilibrium_T_6_8.py:093  |                 group = hoomd.group.all(),
Equilibrium_T_6_8.py:091  |  gsd = hoomd.dump.gsd(gsd_file,
               period = 1e3,
               group = hoomd.group.all(),
               overwrite = True); 
Equilibrium_T_6_8.py:095  |  meso_gsd = hoomd.dump.gsd(meso_gsd_file,
               period = 1e3,
               group = mesogens,
               overwrite = True); 
Equilibrium_T_6_8.py:104  |  hoomd.run(steps)
notice(2): -- Neighborlist exclusion statistics -- :
notice(2): Particles with 0 exclusions             : 9000
notice(2): Neighbors included by diameter          : no
notice(2): Neighbors excluded when in the same body: yes
** starting run **
Time 00:00:10 | Step 1697539 / 1895000 | TPS 253.778 | ETA 00:12:58
Time 00:00:20 | Step 1700260 / 1895000 | TPS 272.055 | ETA 00:11:55
Time 00:00:30 | Step 1702903 / 1895000 | TPS 264.15 | ETA 00:12:07
Time 00:00:40 | Step 1705610 / 1895000 | TPS 270.529 | ETA 00:11:40
Time 00:00:50 | Step 1708322 / 1895000 | TPS 271.155 | ETA 00:11:28
Time 00:01:00 | Step 1711070 / 1895000 | TPS 274.791 | ETA 00:11:09
Time 00:01:10 | Step 1713854 / 1895000 | TPS 278.221 | ETA 00:10:51
Time 00:01:20 | Step 1716588 / 1895000 | TPS 273.378 | ETA 00:10:52
Time 00:01:30 | Step 1719243 / 1895000 | TPS 265.346 | ETA 00:11:02
Time 00:01:40 | Step 1721917 / 1895000 | TPS 267.263 | ETA 00:10:47
Time 00:01:50 | Step 1724527 / 1895000 | TPS 260.901 | ETA 00:10:53
Time 00:02:00 | Step 1727153 / 1895000 | TPS 262.592 | ETA 00:10:39
Time 00:02:10 | Step 1729787 / 1895000 | TPS 263.226 | ETA 00:10:27
Time 00:02:20 | Step 1732476 / 1895000 | TPS 268.894 | ETA 00:10:04
Time 00:02:30 | Step 1735139 / 1895000 | TPS 266.137 | ETA 00:10:00
Time 00:02:40 | Step 1737823 / 1895000 | TPS 268.277 | ETA 00:09:45
Time 00:02:50 | Step 1740547 / 1895000 | TPS 272.395 | ETA 00:09:27
Time 00:03:00 | Step 1743210 / 1895000 | TPS 266.235 | ETA 00:09:30
Time 00:03:10 | Step 1745925 / 1895000 | TPS 271.404 | ETA 00:09:09
Time 00:03:20 | Step 1748603 / 1895000 | TPS 267.794 | ETA 00:09:06
Time 00:03:30 | Step 1751322 / 1895000 | TPS 271.722 | ETA 00:08:48
Time 00:03:40 | Step 1754042 / 1895000 | TPS 271.831 | ETA 00:08:38
Time 00:03:50 | Step 1756725 / 1895000 | TPS 268.225 | ETA 00:08:35
Time 00:04:00 | Step 1759484 / 1895000 | TPS 275.89 | ETA 00:08:11
Time 00:04:10 | Step 1762199 / 1895000 | TPS 271.35 | ETA 00:08:09
Time 00:04:20 | Step 1764908 / 1895000 | TPS 270.851 | ETA 00:08:00
Time 00:04:30 | Step 1767621 / 1895000 | TPS 271.194 | ETA 00:07:49
Time 00:04:40 | Step 1770321 / 1895000 | TPS 269.901 | ETA 00:07:41
Time 00:04:50 | Step 1773050 / 1895000 | TPS 272.885 | ETA 00:07:26
Time 00:05:00 | Step 1775817 / 1895000 | TPS 276.524 | ETA 00:07:11
Time 00:05:10 | Step 1778525 / 1895000 | TPS 270.628 | ETA 00:07:10
Time 00:05:20 | Step 1781279 / 1895000 | TPS 275.278 | ETA 00:06:53
Time 00:05:30 | Step 1784048 / 1895000 | TPS 276.721 | ETA 00:06:40
Time 00:05:40 | Step 1786713 / 1895000 | TPS 266.495 | ETA 00:06:46
Time 00:05:50 | Step 1789501 / 1895000 | TPS 271.133 | ETA 00:06:29
Time 00:06:00 | Step 1796101 / 1895000 | TPS 650.041 | ETA 00:02:32
Time 00:06:10 | Step 1802701 / 1895000 | TPS 651.869 | ETA 00:02:21
Time 00:06:21 | Step 1809301 / 1895000 | TPS 651.653 | ETA 00:02:11
Time 00:06:31 | Step 1815901 / 1895000 | TPS 651.314 | ETA 00:02:01
Time 00:06:41 | Step 1822501 / 1895000 | TPS 651.808 | ETA 00:01:51
Time 00:06:51 | Step 1829101 / 1895000 | TPS 651.734 | ETA 00:01:41
Time 00:07:01 | Step 1835701 / 1895000 | TPS 652.103 | ETA 00:01:30
Time 00:07:11 | Step 1842301 / 1895000 | TPS 651.738 | ETA 00:01:20
Time 00:07:21 | Step 1848901 / 1895000 | TPS 652.181 | ETA 00:01:10
Time 00:07:31 | Step 1855501 / 1895000 | TPS 651.669 | ETA 00:01:00
Time 00:07:42 | Step 1862101 / 1895000 | TPS 651.753 | ETA 00:00:50
Time 00:07:52 | Step 1868701 / 1895000 | TPS 652.113 | ETA 00:00:40
Time 00:08:02 | Step 1875301 / 1895000 | TPS 651.68 | ETA 00:00:30
Time 00:08:12 | Step 1881901 / 1895000 | TPS 652.181 | ETA 00:00:20
Time 00:08:22 | Step 1888501 / 1895000 | TPS 651.721 | ETA 00:00:09
Time 00:08:32 | Step 1895000 / 1895000 | TPS 666.062 | ETA 00:00:00
Average TPS: 390.57
---------
-- Neighborlist stats:
42744 normal updates / 668 forced updates / 0 dangerous updates
n_neigh_min: 0 / n_neigh_max: 0 / n_neigh_avg: 0
shortest rebuild period: 1
** run complete **
