[33mWARNING: Skipping user bind, non existent bind point (file) in container: '/usr/bin/nvidia-smi'
[0m[33mWARNING: Skipping user bind, non existent bind point (file) in container: '/usr/bin/nvidia-debugdump'
[0m[33mWARNING: Skipping user bind, non existent bind point (file) in container: '/usr/bin/nvidia-persistenced'
[0m[33mWARNING: Skipping user bind, non existent bind point (file) in container: '/usr/bin/nvidia-cuda-mps-control'
[0m[33mWARNING: Skipping user bind, non existent bind point (file) in container: '/usr/bin/nvidia-cuda-mps-server'
[0mHOOMD-blue 2.3.5 CUDA (8.0) DOUBLE HPMC_MIXED TBB SSE SSE2 
Compiled: 10/08/18
Copyright 2009-2018 The Regents of the University of Michigan.
-----
You are using HOOMD-blue. Please cite the following:
* J A Anderson, C D Lorenz, and A Travesset. "General purpose molecular dynamics
  simulations fully implemented on graphics processing units", Journal of
  Computational Physics 227 (2008) 5342--5359
* J Glaser, T D Nguyen, J A Anderson, P Liu, F Spiga, J A Millan, D C Morse, and
  S C Glotzer. "Strong scaling of general-purpose molecular dynamics simulations
  on GPUs", Computer Physics Communications 192 (2015) 97--107
-----
notice(2): This system is not compute exclusive, using local rank to select GPUs
HOOMD-blue is running on the following GPU(s):
 [0]            Tesla K20m  13 SM_3.5 @ 0.706 GHz, 4743 MiB DRAM
Ramp_80.py:048  |  system = hoomd.init.read_gsd(ramp_file, frame = -1);
notice(2): Group "all" created containing 1010 particles
Ramp_80.py:052  |  rigid = hoomd.md.constrain.rigid();
notice(2): constrain.rigid(): Creating 1000 rigid bodies (adding 8000 particles)
Ramp_80.py:064  |  nl = hoomd.md.nlist.tree();
-----
You are using tree neighbor lists. Please cite the following:
* M P Howard, J A Anderson, A Nikoubashman, S C Glotzer, and A Z
  Panagiotopoulos. "Efficient neighbor list calculation for molecular simulation
  of colloidal systems using graphics processing units", Computer Physics
  Communications 203 (2016) 45--52
-----
Ramp_80.py:066  |  lj = hoomd.md.pair.lj(r_cut = 3.5, nlist = nl)
Ramp_80.py:067  |  lj.set_params(mode = 'shift')
Ramp_80.py:071  |  lj.pair_coeff.set('NP','NP', epsilon = 1.0, sigma = 5.0);
Ramp_80.py:072  |  lj.pair_coeff.set('M' ,'M' , epsilon = 1.0, sigma = 1.0);
Ramp_80.py:073  |  lj.pair_coeff.set('A' ,'A' , epsilon = 1.0, sigma = 1.0);
Ramp_80.py:074  |  lj.pair_coeff.set('M' ,'A' , epsilon = 1.0, sigma = 1.0);
Ramp_80.py:075  |  lj.pair_coeff.set('NP','M' , epsilon = 1.0, sigma = 3.0);
Ramp_80.py:076  |  lj.pair_coeff.set('NP','A' , epsilon = 1.0, sigma = 3.0);
Ramp_80.py:080  |  hoomd.md.integrate.mode_standard(dt = 0.005);
Ramp_80.py:084  |  nanoparticles = hoomd.group.type(name = 'Nano_Particles', type = 'NP');
notice(2): Group "Nano_Particles" created containing 10 particles
Ramp_80.py:085  |  mesogens = hoomd.group.rigid_center();
notice(2): Group "rigid_center" created containing 1000 particles
notice(2): Group "NP_Mes" created containing 1010 particles
Ramp_80.py:092  |  npt = hoomd.md.integrate.npt(group = groupNP_mes, kT = temp, tau = 2.0, tauP = 3.0, P = p_max);
Ramp_80.py:101  |  log = hoomd.analyze.log(filename = log_file,
                         quantities = ['num_particles',
                                     'ndof',
                                     'translational_ndof',
                                     'rotational_ndof',
                                     'potential_energy',
                                     'kinetic_energy',
                                     'translational_kinetic_energy',
                                     'rotational_kinetic_energy',
                                     'temperature',
                                     'pressure',
                                      'volume'],
                         period = 1e3,
                         overwrite = True);
Ramp_80.py:117  |                 group = hoomd.group.all(),
Ramp_80.py:115  |  gsd = hoomd.dump.gsd(gsd_file,
               period = 1e3,
               group = hoomd.group.all(),
               overwrite = True); 
Ramp_80.py:119  |  meso_gsd = hoomd.dump.gsd(meso_gsd_file,
               period = 1e3,
               group = groupNP_mes,
               overwrite = True); 
Ramp_80.py:130  |  hoomd.run(steps_ramp)
notice(2): -- Neighborlist exclusion statistics -- :
notice(2): Particles with 0 exclusions             : 9010
notice(2): Neighbors included by diameter          : no
notice(2): Neighbors excluded when in the same body: yes
** starting run **
Time 00:00:10 | Step 443968 / 492000 | TPS 196.749 | ETA 00:04:04
Time 00:00:20 | Step 446037 / 492000 | TPS 206.864 | ETA 00:03:42
Time 00:00:30 | Step 448138 / 492000 | TPS 210.007 | ETA 00:03:28
Time 00:00:40 | Step 450229 / 492000 | TPS 209.015 | ETA 00:03:19
Time 00:00:50 | Step 452354 / 492000 | TPS 212.386 | ETA 00:03:06
Time 00:01:00 | Step 454493 / 492000 | TPS 213.725 | ETA 00:02:55
Time 00:01:10 | Step 456631 / 492000 | TPS 213.639 | ETA 00:02:45
Time 00:01:20 | Step 458775 / 492000 | TPS 214.265 | ETA 00:02:35
Time 00:01:30 | Step 460926 / 492000 | TPS 215.053 | ETA 00:02:24
Time 00:01:40 | Step 463082 / 492000 | TPS 215.423 | ETA 00:02:14
Time 00:01:50 | Step 465240 / 492000 | TPS 215.714 | ETA 00:02:04
Time 00:02:00 | Step 467409 / 492000 | TPS 216.777 | ETA 00:01:53
Time 00:02:10 | Step 472371 / 492000 | TPS 496.197 | ETA 00:00:39
Time 00:02:20 | Step 478501 / 492000 | TPS 593.626 | ETA 00:00:22
Time 00:02:30 | Step 484687 / 492000 | TPS 618.593 | ETA 00:00:11
Time 00:02:40 | Step 490801 / 492000 | TPS 592.271 | ETA 00:00:02
Time 00:02:42 | Step 492000 / 492000 | TPS 736.792 | ETA 00:00:00
Average TPS: 308.001
---------
-- Neighborlist stats:
12839 normal updates / 167 forced updates / 0 dangerous updates
n_neigh_min: 0 / n_neigh_max: 0 / n_neigh_avg: 0
shortest rebuild period: 1
** run complete **
[33mWARNING: Skipping user bind, non existent bind point (file) in container: '/usr/bin/nvidia-smi'
[0m[33mWARNING: Skipping user bind, non existent bind point (file) in container: '/usr/bin/nvidia-debugdump'
[0m[33mWARNING: Skipping user bind, non existent bind point (file) in container: '/usr/bin/nvidia-persistenced'
[0m[33mWARNING: Skipping user bind, non existent bind point (file) in container: '/usr/bin/nvidia-cuda-mps-control'
[0m[33mWARNING: Skipping user bind, non existent bind point (file) in container: '/usr/bin/nvidia-cuda-mps-server'
[0mHOOMD-blue 2.3.5 CUDA (8.0) DOUBLE HPMC_MIXED TBB SSE SSE2 
Compiled: 10/08/18
Copyright 2009-2018 The Regents of the University of Michigan.
-----
You are using HOOMD-blue. Please cite the following:
* J A Anderson, C D Lorenz, and A Travesset. "General purpose molecular dynamics
  simulations fully implemented on graphics processing units", Journal of
  Computational Physics 227 (2008) 5342--5359
* J Glaser, T D Nguyen, J A Anderson, P Liu, F Spiga, J A Millan, D C Morse, and
  S C Glotzer. "Strong scaling of general-purpose molecular dynamics simulations
  on GPUs", Computer Physics Communications 192 (2015) 97--107
-----
notice(2): This system is not compute exclusive, using local rank to select GPUs
HOOMD-blue is running on the following GPU(s):
 [0]            Tesla K20m  13 SM_3.5 @ 0.706 GHz, 4743 MiB DRAM
Ramp_82.py:048  |  system = hoomd.init.read_gsd(ramp_file, frame = -1);
notice(2): Group "all" created containing 1010 particles
Ramp_82.py:052  |  rigid = hoomd.md.constrain.rigid();
notice(2): constrain.rigid(): Creating 1000 rigid bodies (adding 8000 particles)
Ramp_82.py:064  |  nl = hoomd.md.nlist.tree();
-----
You are using tree neighbor lists. Please cite the following:
* M P Howard, J A Anderson, A Nikoubashman, S C Glotzer, and A Z
  Panagiotopoulos. "Efficient neighbor list calculation for molecular simulation
  of colloidal systems using graphics processing units", Computer Physics
  Communications 203 (2016) 45--52
-----
Ramp_82.py:066  |  lj = hoomd.md.pair.lj(r_cut = 3.5, nlist = nl)
Ramp_82.py:067  |  lj.set_params(mode = 'shift')
Ramp_82.py:071  |  lj.pair_coeff.set('NP','NP', epsilon = 1.0, sigma = 5.0);
Ramp_82.py:072  |  lj.pair_coeff.set('M' ,'M' , epsilon = 1.0, sigma = 1.0);
Ramp_82.py:073  |  lj.pair_coeff.set('A' ,'A' , epsilon = 1.0, sigma = 1.0);
Ramp_82.py:074  |  lj.pair_coeff.set('M' ,'A' , epsilon = 1.0, sigma = 1.0);
Ramp_82.py:075  |  lj.pair_coeff.set('NP','M' , epsilon = 1.0, sigma = 3.0);
Ramp_82.py:076  |  lj.pair_coeff.set('NP','A' , epsilon = 1.0, sigma = 3.0);
Ramp_82.py:080  |  hoomd.md.integrate.mode_standard(dt = 0.005);
Ramp_82.py:084  |  nanoparticles = hoomd.group.type(name = 'Nano_Particles', type = 'NP');
notice(2): Group "Nano_Particles" created containing 10 particles
Ramp_82.py:085  |  mesogens = hoomd.group.rigid_center();
notice(2): Group "rigid_center" created containing 1000 particles
notice(2): Group "NP_Mes" created containing 1010 particles
Ramp_82.py:092  |  npt = hoomd.md.integrate.npt(group = groupNP_mes, kT = temp, tau = 2.0, tauP = 2.0, P = p_max);
Ramp_82.py:101  |  log = hoomd.analyze.log(filename = log_file,
                         quantities = ['num_particles',
                                     'ndof',
                                     'translational_ndof',
                                     'rotational_ndof',
                                     'potential_energy',
                                     'kinetic_energy',
                                     'translational_kinetic_energy',
                                     'rotational_kinetic_energy',
                                     'temperature',
                                     'pressure',
                                      'volume'],
                         period = 1e3,
                         overwrite = True);
Ramp_82.py:117  |                 group = hoomd.group.all(),
Ramp_82.py:115  |  gsd = hoomd.dump.gsd(gsd_file,
               period = 1e3,
               group = hoomd.group.all(),
               overwrite = True); 
Ramp_82.py:119  |  meso_gsd = hoomd.dump.gsd(meso_gsd_file,
               period = 1e3,
               group = groupNP_mes,
               overwrite = True); 
Ramp_82.py:130  |  hoomd.run(steps_ramp)
notice(2): -- Neighborlist exclusion statistics -- :
notice(2): Particles with 0 exclusions             : 9010
notice(2): Neighbors included by diameter          : no
notice(2): Neighbors excluded when in the same body: yes
** starting run **
Time 00:00:10 | Step 496189 / 541000 | TPS 518.893 | ETA 00:01:26
Time 00:00:20 | Step 502801 / 541000 | TPS 654.403 | ETA 00:00:58
Time 00:00:30 | Step 508501 / 541000 | TPS 565.605 | ETA 00:00:57
Time 00:00:40 | Step 513601 / 541000 | TPS 509.397 | ETA 00:00:53
Time 00:00:50 | Step 517501 / 541000 | TPS 380.951 | ETA 00:01:01
Time 00:01:00 | Step 521401 / 541000 | TPS 380.246 | ETA 00:00:51
Time 00:01:11 | Step 527401 / 541000 | TPS 589.689 | ETA 00:00:23
Time 00:01:21 | Step 533701 / 541000 | TPS 616.888 | ETA 00:00:11
Time 00:01:31 | Step 540041 / 541000 | TPS 633.998 | ETA 00:00:01
Time 00:01:32 | Step 541000 / 541000 | TPS 718.979 | ETA 00:00:00
Average TPS: 541.073
---------
-- Neighborlist stats:
0 normal updates / 168 forced updates / 0 dangerous updates
n_neigh_min: 0 / n_neigh_max: 0 / n_neigh_avg: 0
shortest rebuild period: 100
** run complete **
[33mWARNING: Skipping user bind, non existent bind point (file) in container: '/usr/bin/nvidia-smi'
[0m[33mWARNING: Skipping user bind, non existent bind point (file) in container: '/usr/bin/nvidia-debugdump'
[0m[33mWARNING: Skipping user bind, non existent bind point (file) in container: '/usr/bin/nvidia-persistenced'
[0m[33mWARNING: Skipping user bind, non existent bind point (file) in container: '/usr/bin/nvidia-cuda-mps-control'
[0m[33mWARNING: Skipping user bind, non existent bind point (file) in container: '/usr/bin/nvidia-cuda-mps-server'
[0mHOOMD-blue 2.3.5 CUDA (8.0) DOUBLE HPMC_MIXED TBB SSE SSE2 
Compiled: 10/08/18
Copyright 2009-2018 The Regents of the University of Michigan.
-----
You are using HOOMD-blue. Please cite the following:
* J A Anderson, C D Lorenz, and A Travesset. "General purpose molecular dynamics
  simulations fully implemented on graphics processing units", Journal of
  Computational Physics 227 (2008) 5342--5359
* J Glaser, T D Nguyen, J A Anderson, P Liu, F Spiga, J A Millan, D C Morse, and
  S C Glotzer. "Strong scaling of general-purpose molecular dynamics simulations
  on GPUs", Computer Physics Communications 192 (2015) 97--107
-----
notice(2): This system is not compute exclusive, using local rank to select GPUs
HOOMD-blue is running on the following GPU(s):
 [0]            Tesla K20m  13 SM_3.5 @ 0.706 GHz, 4743 MiB DRAM
Ramp_84.py:048  |  system = hoomd.init.read_gsd(ramp_file, frame = -1);
notice(2): Group "all" created containing 1010 particles
Ramp_84.py:052  |  rigid = hoomd.md.constrain.rigid();
notice(2): constrain.rigid(): Creating 1000 rigid bodies (adding 8000 particles)
Ramp_84.py:064  |  nl = hoomd.md.nlist.tree();
-----
You are using tree neighbor lists. Please cite the following:
* M P Howard, J A Anderson, A Nikoubashman, S C Glotzer, and A Z
  Panagiotopoulos. "Efficient neighbor list calculation for molecular simulation
  of colloidal systems using graphics processing units", Computer Physics
  Communications 203 (2016) 45--52
-----
Ramp_84.py:066  |  lj = hoomd.md.pair.lj(r_cut = 3.5, nlist = nl)
Ramp_84.py:067  |  lj.set_params(mode = 'shift')
Ramp_84.py:071  |  lj.pair_coeff.set('NP','NP', epsilon = 1.0, sigma = 5.0);
Ramp_84.py:072  |  lj.pair_coeff.set('M' ,'M' , epsilon = 1.0, sigma = 1.0);
Ramp_84.py:073  |  lj.pair_coeff.set('A' ,'A' , epsilon = 1.0, sigma = 1.0);
Ramp_84.py:074  |  lj.pair_coeff.set('M' ,'A' , epsilon = 1.0, sigma = 1.0);
Ramp_84.py:075  |  lj.pair_coeff.set('NP','M' , epsilon = 1.0, sigma = 3.0);
Ramp_84.py:076  |  lj.pair_coeff.set('NP','A' , epsilon = 1.0, sigma = 3.0);
Ramp_84.py:080  |  hoomd.md.integrate.mode_standard(dt = 0.005);
Ramp_84.py:084  |  nanoparticles = hoomd.group.type(name = 'Nano_Particles', type = 'NP');
notice(2): Group "Nano_Particles" created containing 10 particles
Ramp_84.py:085  |  mesogens = hoomd.group.rigid_center();
notice(2): Group "rigid_center" created containing 1000 particles
notice(2): Group "NP_Mes" created containing 1010 particles
Ramp_84.py:092  |  npt = hoomd.md.integrate.npt(group = groupNP_mes, kT = temp, tau = 5.5, tauP = 5.5, P = p_max);
Ramp_84.py:101  |  log = hoomd.analyze.log(filename = log_file,
                         quantities = ['num_particles',
                                     'ndof',
                                     'translational_ndof',
                                     'rotational_ndof',
                                     'potential_energy',
                                     'kinetic_energy',
                                     'translational_kinetic_energy',
                                     'rotational_kinetic_energy',
                                     'temperature',
                                     'pressure',
                                      'volume'],
                         period = 1e3,
                         overwrite = True);
Ramp_84.py:117  |                 group = hoomd.group.all(),
Ramp_84.py:115  |  gsd = hoomd.dump.gsd(gsd_file,
               period = 1e3,
               group = hoomd.group.all(),
               overwrite = True); 
Ramp_84.py:119  |  meso_gsd = hoomd.dump.gsd(meso_gsd_file,
               period = 1e3,
               group = groupNP_mes,
               overwrite = True); 
Ramp_84.py:130  |  hoomd.run(steps_ramp)
notice(2): -- Neighborlist exclusion statistics -- :
notice(2): Particles with 0 exclusions             : 9010
notice(2): Neighbors included by diameter          : no
notice(2): Neighbors excluded when in the same body: yes
** starting run **
Time 00:00:10 | Step 545101 / 590000 | TPS 495.723 | ETA 00:01:30
Time 00:00:20 | Step 552001 / 590000 | TPS 673.725 | ETA 00:00:56
Time 00:00:30 | Step 557701 / 590000 | TPS 565.254 | ETA 00:00:57
Time 00:00:41 | Step 562801 / 590000 | TPS 493.25 | ETA 00:00:55
Time 00:00:51 | Step 566701 / 590000 | TPS 380.308 | ETA 00:01:01
Time 00:01:01 | Step 570601 / 590000 | TPS 380.233 | ETA 00:00:51
Time 00:01:11 | Step 576898 / 590000 | TPS 629.691 | ETA 00:00:20
Time 00:01:21 | Step 582901 / 590000 | TPS 594.141 | ETA 00:00:11
Time 00:01:31 | Step 589344 / 590000 | TPS 644.297 | ETA 00:00:01
Time 00:01:32 | Step 590000 / 590000 | TPS 731.666 | ETA 00:00:00
Average TPS: 540.731
---------
-- Neighborlist stats:
0 normal updates / 168 forced updates / 0 dangerous updates
n_neigh_min: 0 / n_neigh_max: 0 / n_neigh_avg: 0
shortest rebuild period: 100
** run complete **
[33mWARNING: Skipping user bind, non existent bind point (file) in container: '/usr/bin/nvidia-smi'
[0m[33mWARNING: Skipping user bind, non existent bind point (file) in container: '/usr/bin/nvidia-debugdump'
[0m[33mWARNING: Skipping user bind, non existent bind point (file) in container: '/usr/bin/nvidia-persistenced'
[0m[33mWARNING: Skipping user bind, non existent bind point (file) in container: '/usr/bin/nvidia-cuda-mps-control'
[0m[33mWARNING: Skipping user bind, non existent bind point (file) in container: '/usr/bin/nvidia-cuda-mps-server'
[0mHOOMD-blue 2.3.5 CUDA (8.0) DOUBLE HPMC_MIXED TBB SSE SSE2 
Compiled: 10/08/18
Copyright 2009-2018 The Regents of the University of Michigan.
-----
You are using HOOMD-blue. Please cite the following:
* J A Anderson, C D Lorenz, and A Travesset. "General purpose molecular dynamics
  simulations fully implemented on graphics processing units", Journal of
  Computational Physics 227 (2008) 5342--5359
* J Glaser, T D Nguyen, J A Anderson, P Liu, F Spiga, J A Millan, D C Morse, and
  S C Glotzer. "Strong scaling of general-purpose molecular dynamics simulations
  on GPUs", Computer Physics Communications 192 (2015) 97--107
-----
notice(2): This system is not compute exclusive, using local rank to select GPUs
HOOMD-blue is running on the following GPU(s):
 [0]            Tesla K20m  13 SM_3.5 @ 0.706 GHz, 4743 MiB DRAM
Ramp_86.py:048  |  system = hoomd.init.read_gsd(ramp_file, frame = -1);
notice(2): Group "all" created containing 1010 particles
Ramp_86.py:052  |  rigid = hoomd.md.constrain.rigid();
notice(2): constrain.rigid(): Creating 1000 rigid bodies (adding 8000 particles)
Ramp_86.py:064  |  nl = hoomd.md.nlist.tree();
-----
You are using tree neighbor lists. Please cite the following:
* M P Howard, J A Anderson, A Nikoubashman, S C Glotzer, and A Z
  Panagiotopoulos. "Efficient neighbor list calculation for molecular simulation
  of colloidal systems using graphics processing units", Computer Physics
  Communications 203 (2016) 45--52
-----
Ramp_86.py:066  |  lj = hoomd.md.pair.lj(r_cut = 3.5, nlist = nl)
Ramp_86.py:067  |  lj.set_params(mode = 'shift')
Ramp_86.py:071  |  lj.pair_coeff.set('NP','NP', epsilon = 1.0, sigma = 5.0);
Ramp_86.py:072  |  lj.pair_coeff.set('M' ,'M' , epsilon = 1.0, sigma = 1.0);
Ramp_86.py:073  |  lj.pair_coeff.set('A' ,'A' , epsilon = 1.0, sigma = 1.0);
Ramp_86.py:074  |  lj.pair_coeff.set('M' ,'A' , epsilon = 1.0, sigma = 1.0);
Ramp_86.py:075  |  lj.pair_coeff.set('NP','M' , epsilon = 1.0, sigma = 3.0);
Ramp_86.py:076  |  lj.pair_coeff.set('NP','A' , epsilon = 1.0, sigma = 3.0);
Ramp_86.py:080  |  hoomd.md.integrate.mode_standard(dt = 0.005);
Ramp_86.py:084  |  nanoparticles = hoomd.group.type(name = 'Nano_Particles', type = 'NP');
notice(2): Group "Nano_Particles" created containing 10 particles
Ramp_86.py:085  |  mesogens = hoomd.group.rigid_center();
notice(2): Group "rigid_center" created containing 1000 particles
notice(2): Group "NP_Mes" created containing 1010 particles
Ramp_86.py:092  |  npt = hoomd.md.integrate.npt(group = groupNP_mes, kT = temp, tau = 7.0, tauP = 7.0, P = p_max);
Ramp_86.py:101  |  log = hoomd.analyze.log(filename = log_file,
                         quantities = ['num_particles',
                                     'ndof',
                                     'translational_ndof',
                                     'rotational_ndof',
                                     'potential_energy',
                                     'kinetic_energy',
                                     'translational_kinetic_energy',
                                     'rotational_kinetic_energy',
                                     'temperature',
                                     'pressure',
                                      'volume'],
                         period = 1e3,
                         overwrite = True);
Ramp_86.py:117  |                 group = hoomd.group.all(),
Ramp_86.py:115  |  gsd = hoomd.dump.gsd(gsd_file,
               period = 1e3,
               group = hoomd.group.all(),
               overwrite = True); 
Ramp_86.py:119  |  meso_gsd = hoomd.dump.gsd(meso_gsd_file,
               period = 1e3,
               group = groupNP_mes,
               overwrite = True); 
Ramp_86.py:130  |  hoomd.run(steps_ramp)
notice(2): -- Neighborlist exclusion statistics -- :
notice(2): Particles with 0 exclusions             : 9010
notice(2): Neighbors included by diameter          : no
notice(2): Neighbors excluded when in the same body: yes
** starting run **
Time 00:00:10 | Step 594168 / 639000 | TPS 516.795 | ETA 00:01:26
Time 00:00:20 | Step 600901 / 639000 | TPS 662.544 | ETA 00:00:57
Time 00:00:30 | Step 606601 / 639000 | TPS 565.531 | ETA 00:00:57
Time 00:00:40 | Step 611701 / 639000 | TPS 509.043 | ETA 00:00:53
Time 00:00:50 | Step 615601 / 639000 | TPS 380.735 | ETA 00:01:01
Time 00:01:00 | Step 619501 / 639000 | TPS 379.979 | ETA 00:00:51
Time 00:01:11 | Step 625501 / 639000 | TPS 588.952 | ETA 00:00:22
Time 00:01:21 | Step 631801 / 639000 | TPS 616.321 | ETA 00:00:11
Time 00:01:31 | Step 638126 / 639000 | TPS 632.493 | ETA 00:00:01
Time 00:01:32 | Step 639000 / 639000 | TPS 888.046 | ETA 00:00:00
Average TPS: 542.528
---------
-- Neighborlist stats:
0 normal updates / 167 forced updates / 0 dangerous updates
n_neigh_min: 0 / n_neigh_max: 0 / n_neigh_avg: 0
shortest rebuild period: 100
** run complete **
[33mWARNING: Skipping user bind, non existent bind point (file) in container: '/usr/bin/nvidia-smi'
[0m[33mWARNING: Skipping user bind, non existent bind point (file) in container: '/usr/bin/nvidia-debugdump'
[0m[33mWARNING: Skipping user bind, non existent bind point (file) in container: '/usr/bin/nvidia-persistenced'
[0m[33mWARNING: Skipping user bind, non existent bind point (file) in container: '/usr/bin/nvidia-cuda-mps-control'
[0m[33mWARNING: Skipping user bind, non existent bind point (file) in container: '/usr/bin/nvidia-cuda-mps-server'
[0mHOOMD-blue 2.3.5 CUDA (8.0) DOUBLE HPMC_MIXED TBB SSE SSE2 
Compiled: 10/08/18
Copyright 2009-2018 The Regents of the University of Michigan.
-----
You are using HOOMD-blue. Please cite the following:
* J A Anderson, C D Lorenz, and A Travesset. "General purpose molecular dynamics
  simulations fully implemented on graphics processing units", Journal of
  Computational Physics 227 (2008) 5342--5359
* J Glaser, T D Nguyen, J A Anderson, P Liu, F Spiga, J A Millan, D C Morse, and
  S C Glotzer. "Strong scaling of general-purpose molecular dynamics simulations
  on GPUs", Computer Physics Communications 192 (2015) 97--107
-----
notice(2): This system is not compute exclusive, using local rank to select GPUs
HOOMD-blue is running on the following GPU(s):
 [0]            Tesla K20m  13 SM_3.5 @ 0.706 GHz, 4743 MiB DRAM
Ramp_88.py:048  |  system = hoomd.init.read_gsd(ramp_file, frame = -1);
notice(2): Group "all" created containing 1010 particles
Ramp_88.py:052  |  rigid = hoomd.md.constrain.rigid();
notice(2): constrain.rigid(): Creating 1000 rigid bodies (adding 8000 particles)
Ramp_88.py:064  |  nl = hoomd.md.nlist.tree();
-----
You are using tree neighbor lists. Please cite the following:
* M P Howard, J A Anderson, A Nikoubashman, S C Glotzer, and A Z
  Panagiotopoulos. "Efficient neighbor list calculation for molecular simulation
  of colloidal systems using graphics processing units", Computer Physics
  Communications 203 (2016) 45--52
-----
Ramp_88.py:066  |  lj = hoomd.md.pair.lj(r_cut = 3.5, nlist = nl)
Ramp_88.py:067  |  lj.set_params(mode = 'shift')
Ramp_88.py:071  |  lj.pair_coeff.set('NP','NP', epsilon = 1.0, sigma = 5.0);
Ramp_88.py:072  |  lj.pair_coeff.set('M' ,'M' , epsilon = 1.0, sigma = 1.0);
Ramp_88.py:073  |  lj.pair_coeff.set('A' ,'A' , epsilon = 1.0, sigma = 1.0);
Ramp_88.py:074  |  lj.pair_coeff.set('M' ,'A' , epsilon = 1.0, sigma = 1.0);
Ramp_88.py:075  |  lj.pair_coeff.set('NP','M' , epsilon = 1.0, sigma = 3.0);
Ramp_88.py:076  |  lj.pair_coeff.set('NP','A' , epsilon = 1.0, sigma = 3.0);
Ramp_88.py:080  |  hoomd.md.integrate.mode_standard(dt = 0.005);
Ramp_88.py:084  |  nanoparticles = hoomd.group.type(name = 'Nano_Particles', type = 'NP');
notice(2): Group "Nano_Particles" created containing 10 particles
Ramp_88.py:085  |  mesogens = hoomd.group.rigid_center();
notice(2): Group "rigid_center" created containing 1000 particles
notice(2): Group "NP_Mes" created containing 1010 particles
Ramp_88.py:092  |  npt = hoomd.md.integrate.npt(group = groupNP_mes, kT = temp, tau = 7.0, tauP = 7.0, P = p_max);
Ramp_88.py:101  |  log = hoomd.analyze.log(filename = log_file,
                         quantities = ['num_particles',
                                     'ndof',
                                     'translational_ndof',
                                     'rotational_ndof',
                                     'potential_energy',
                                     'kinetic_energy',
                                     'translational_kinetic_energy',
                                     'rotational_kinetic_energy',
                                     'temperature',
                                     'pressure',
                                      'volume'],
                         period = 1e3,
                         overwrite = True);
Ramp_88.py:117  |                 group = hoomd.group.all(),
Ramp_88.py:115  |  gsd = hoomd.dump.gsd(gsd_file,
               period = 1e3,
               group = hoomd.group.all(),
               overwrite = True); 
Ramp_88.py:119  |  meso_gsd = hoomd.dump.gsd(meso_gsd_file,
               period = 1e3,
               group = groupNP_mes,
               overwrite = True); 
Ramp_88.py:130  |  hoomd.run(steps_ramp)
notice(2): -- Neighborlist exclusion statistics -- :
notice(2): Particles with 0 exclusions             : 9010
notice(2): Neighbors included by diameter          : no
notice(2): Neighbors excluded when in the same body: yes
** starting run **
Time 00:00:10 | Step 643184 / 688000 | TPS 518.392 | ETA 00:01:26
Time 00:00:20 | Step 649801 / 688000 | TPS 654.637 | ETA 00:00:58
Time 00:00:30 | Step 655501 / 688000 | TPS 565.436 | ETA 00:00:57
Time 00:00:40 | Step 660601 / 688000 | TPS 509.33 | ETA 00:00:53
Time 00:00:50 | Step 664501 / 688000 | TPS 380.936 | ETA 00:01:01
Time 00:01:00 | Step 668401 / 688000 | TPS 380.26 | ETA 00:00:51
Time 00:01:11 | Step 674401 / 688000 | TPS 589.798 | ETA 00:00:23
Time 00:01:21 | Step 680701 / 688000 | TPS 616.975 | ETA 00:00:11
Time 00:01:31 | Step 687045 / 688000 | TPS 634.386 | ETA 00:00:01
Time 00:01:32 | Step 688000 / 688000 | TPS 716.655 | ETA 00:00:00
Average TPS: 541.05
---------
-- Neighborlist stats:
0 normal updates / 168 forced updates / 0 dangerous updates
n_neigh_min: 0 / n_neigh_max: 0 / n_neigh_avg: 0
shortest rebuild period: 100
** run complete **
[33mWARNING: Skipping user bind, non existent bind point (file) in container: '/usr/bin/nvidia-smi'
[0m[33mWARNING: Skipping user bind, non existent bind point (file) in container: '/usr/bin/nvidia-debugdump'
[0m[33mWARNING: Skipping user bind, non existent bind point (file) in container: '/usr/bin/nvidia-persistenced'
[0m[33mWARNING: Skipping user bind, non existent bind point (file) in container: '/usr/bin/nvidia-cuda-mps-control'
[0m[33mWARNING: Skipping user bind, non existent bind point (file) in container: '/usr/bin/nvidia-cuda-mps-server'
[0mHOOMD-blue 2.3.5 CUDA (8.0) DOUBLE HPMC_MIXED TBB SSE SSE2 
Compiled: 10/08/18
Copyright 2009-2018 The Regents of the University of Michigan.
-----
You are using HOOMD-blue. Please cite the following:
* J A Anderson, C D Lorenz, and A Travesset. "General purpose molecular dynamics
  simulations fully implemented on graphics processing units", Journal of
  Computational Physics 227 (2008) 5342--5359
* J Glaser, T D Nguyen, J A Anderson, P Liu, F Spiga, J A Millan, D C Morse, and
  S C Glotzer. "Strong scaling of general-purpose molecular dynamics simulations
  on GPUs", Computer Physics Communications 192 (2015) 97--107
-----
notice(2): This system is not compute exclusive, using local rank to select GPUs
HOOMD-blue is running on the following GPU(s):
 [0]            Tesla K20m  13 SM_3.5 @ 0.706 GHz, 4743 MiB DRAM
Ramp_90.py:048  |  system = hoomd.init.read_gsd(ramp_file, frame = -1);
notice(2): Group "all" created containing 1010 particles
Ramp_90.py:052  |  rigid = hoomd.md.constrain.rigid();
notice(2): constrain.rigid(): Creating 1000 rigid bodies (adding 8000 particles)
Ramp_90.py:064  |  nl = hoomd.md.nlist.tree();
-----
You are using tree neighbor lists. Please cite the following:
* M P Howard, J A Anderson, A Nikoubashman, S C Glotzer, and A Z
  Panagiotopoulos. "Efficient neighbor list calculation for molecular simulation
  of colloidal systems using graphics processing units", Computer Physics
  Communications 203 (2016) 45--52
-----
Ramp_90.py:066  |  lj = hoomd.md.pair.lj(r_cut = 3.5, nlist = nl)
Ramp_90.py:067  |  lj.set_params(mode = 'shift')
Ramp_90.py:071  |  lj.pair_coeff.set('NP','NP', epsilon = 1.0, sigma = 5.0);
Ramp_90.py:072  |  lj.pair_coeff.set('M' ,'M' , epsilon = 1.0, sigma = 1.0);
Ramp_90.py:073  |  lj.pair_coeff.set('A' ,'A' , epsilon = 1.0, sigma = 1.0);
Ramp_90.py:074  |  lj.pair_coeff.set('M' ,'A' , epsilon = 1.0, sigma = 1.0);
Ramp_90.py:075  |  lj.pair_coeff.set('NP','M' , epsilon = 1.0, sigma = 3.0);
Ramp_90.py:076  |  lj.pair_coeff.set('NP','A' , epsilon = 1.0, sigma = 3.0);
Ramp_90.py:080  |  hoomd.md.integrate.mode_standard(dt = 0.005);
Ramp_90.py:084  |  nanoparticles = hoomd.group.type(name = 'Nano_Particles', type = 'NP');
notice(2): Group "Nano_Particles" created containing 10 particles
Ramp_90.py:085  |  mesogens = hoomd.group.rigid_center();
notice(2): Group "rigid_center" created containing 1000 particles
notice(2): Group "NP_Mes" created containing 1010 particles
Ramp_90.py:092  |  npt = hoomd.md.integrate.npt(group = groupNP_mes, kT = temp, tau = 8.0, tauP = 8.0, P = p_max);
Ramp_90.py:101  |  log = hoomd.analyze.log(filename = log_file,
                         quantities = ['num_particles',
                                     'ndof',
                                     'translational_ndof',
                                     'rotational_ndof',
                                     'potential_energy',
                                     'kinetic_energy',
                                     'translational_kinetic_energy',
                                     'rotational_kinetic_energy',
                                     'temperature',
                                     'pressure',
                                      'volume'],
                         period = 1e3,
                         overwrite = True);
Ramp_90.py:117  |                 group = hoomd.group.all(),
Ramp_90.py:115  |  gsd = hoomd.dump.gsd(gsd_file,
               period = 1e3,
               group = hoomd.group.all(),
               overwrite = True); 
Ramp_90.py:119  |  meso_gsd = hoomd.dump.gsd(meso_gsd_file,
               period = 1e3,
               group = groupNP_mes,
               overwrite = True); 
Ramp_90.py:130  |  hoomd.run(steps_ramp)
notice(2): -- Neighborlist exclusion statistics -- :
notice(2): Particles with 0 exclusions             : 9010
notice(2): Neighbors included by diameter          : no
notice(2): Neighbors excluded when in the same body: yes
** starting run **
Time 00:00:10 | Step 692101 / 737000 | TPS 495.32 | ETA 00:01:30
Time 00:00:20 | Step 699001 / 737000 | TPS 673.612 | ETA 00:00:56
Time 00:00:30 | Step 704701 / 737000 | TPS 565.56 | ETA 00:00:57
Time 00:00:41 | Step 709801 / 737000 | TPS 493.214 | ETA 00:00:55
Time 00:00:51 | Step 713701 / 737000 | TPS 380.401 | ETA 00:01:01
Time 00:01:01 | Step 717601 / 737000 | TPS 380.163 | ETA 00:00:51
Time 00:01:11 | Step 723899 / 737000 | TPS 629.79 | ETA 00:00:20
Time 00:01:21 | Step 729901 / 737000 | TPS 594.245 | ETA 00:00:11
Time 00:01:31 | Step 736344 / 737000 | TPS 644.279 | ETA 00:00:01
Time 00:01:32 | Step 737000 / 737000 | TPS 731.727 | ETA 00:00:00
Average TPS: 540.723
---------
-- Neighborlist stats:
0 normal updates / 168 forced updates / 0 dangerous updates
n_neigh_min: 0 / n_neigh_max: 0 / n_neigh_avg: 0
shortest rebuild period: 100
** run complete **
