[33mWARNING: Skipping user bind, non existent bind point (file) in container: '/usr/bin/nvidia-smi'
[0m[33mWARNING: Skipping user bind, non existent bind point (file) in container: '/usr/bin/nvidia-debugdump'
[0m[33mWARNING: Skipping user bind, non existent bind point (file) in container: '/usr/bin/nvidia-persistenced'
[0m[33mWARNING: Skipping user bind, non existent bind point (file) in container: '/usr/bin/nvidia-cuda-mps-control'
[0m[33mWARNING: Skipping user bind, non existent bind point (file) in container: '/usr/bin/nvidia-cuda-mps-server'
[0m**ERROR**: No capable GPUs were found!
HOOMD-blue 2.3.5 CUDA (8.0) DOUBLE HPMC_MIXED TBB SSE SSE2 
Compiled: 10/08/18
Copyright 2009-2018 The Regents of the University of Michigan.
-----
You are using HOOMD-blue. Please cite the following:
* J A Anderson, C D Lorenz, and A Travesset. "General purpose molecular dynamics
  simulations fully implemented on graphics processing units", Journal of
  Computational Physics 227 (2008) 5342--5359
* J Glaser, T D Nguyen, J A Anderson, P Liu, F Spiga, J A Millan, D C Morse, and
  S C Glotzer. "Strong scaling of general-purpose molecular dynamics simulations
  on GPUs", Computer Physics Communications 192 (2015) 97--107
-----
notice(2): Error calling cudaGetDeviceCount(). No NVIDIA driver is present, or this user
notice(2): does not have readwrite permissions on /dev/nvidia*
notice(2): Ignoring any GPUs in the system.
Traceback (most recent call last):
  File "Ramp_80.py", line 44, in <module>
    hoomd.context.initialize("--mode=gpu");
  File "/usr/local/lib/python3.5/dist-packages/hoomd/context.py", line 240, in initialize
    _create_exec_conf();
  File "/usr/local/lib/python3.5/dist-packages/hoomd/context.py", line 278, in _create_exec_conf
    exec_conf = _hoomd.ExecutionConfiguration(exec_mode, gpu_id, options.min_cpu, options.ignore_display, msg, nrank);
RuntimeError: Error initializing execution configuration
[33mWARNING: Skipping user bind, non existent bind point (file) in container: '/usr/bin/nvidia-smi'
[0m[33mWARNING: Skipping user bind, non existent bind point (file) in container: '/usr/bin/nvidia-debugdump'
[0m[33mWARNING: Skipping user bind, non existent bind point (file) in container: '/usr/bin/nvidia-persistenced'
[0m[33mWARNING: Skipping user bind, non existent bind point (file) in container: '/usr/bin/nvidia-cuda-mps-control'
[0m[33mWARNING: Skipping user bind, non existent bind point (file) in container: '/usr/bin/nvidia-cuda-mps-server'
[0m**ERROR**: No capable GPUs were found!
HOOMD-blue 2.3.5 CUDA (8.0) DOUBLE HPMC_MIXED TBB SSE SSE2 
Compiled: 10/08/18
Copyright 2009-2018 The Regents of the University of Michigan.
-----
You are using HOOMD-blue. Please cite the following:
* J A Anderson, C D Lorenz, and A Travesset. "General purpose molecular dynamics
  simulations fully implemented on graphics processing units", Journal of
  Computational Physics 227 (2008) 5342--5359
* J Glaser, T D Nguyen, J A Anderson, P Liu, F Spiga, J A Millan, D C Morse, and
  S C Glotzer. "Strong scaling of general-purpose molecular dynamics simulations
  on GPUs", Computer Physics Communications 192 (2015) 97--107
-----
notice(2): Error calling cudaGetDeviceCount(). No NVIDIA driver is present, or this user
notice(2): does not have readwrite permissions on /dev/nvidia*
notice(2): Ignoring any GPUs in the system.
Traceback (most recent call last):
  File "Ramp_82.py", line 44, in <module>
    hoomd.context.initialize("--mode=gpu");
  File "/usr/local/lib/python3.5/dist-packages/hoomd/context.py", line 240, in initialize
    _create_exec_conf();
  File "/usr/local/lib/python3.5/dist-packages/hoomd/context.py", line 278, in _create_exec_conf
    exec_conf = _hoomd.ExecutionConfiguration(exec_mode, gpu_id, options.min_cpu, options.ignore_display, msg, nrank);
RuntimeError: Error initializing execution configuration
[33mWARNING: Skipping user bind, non existent bind point (file) in container: '/usr/bin/nvidia-smi'
[0m[33mWARNING: Skipping user bind, non existent bind point (file) in container: '/usr/bin/nvidia-debugdump'
[0m[33mWARNING: Skipping user bind, non existent bind point (file) in container: '/usr/bin/nvidia-persistenced'
[0m[33mWARNING: Skipping user bind, non existent bind point (file) in container: '/usr/bin/nvidia-cuda-mps-control'
[0m[33mWARNING: Skipping user bind, non existent bind point (file) in container: '/usr/bin/nvidia-cuda-mps-server'
[0m**ERROR**: No capable GPUs were found!
HOOMD-blue 2.3.5 CUDA (8.0) DOUBLE HPMC_MIXED TBB SSE SSE2 
Compiled: 10/08/18
Copyright 2009-2018 The Regents of the University of Michigan.
-----
You are using HOOMD-blue. Please cite the following:
* J A Anderson, C D Lorenz, and A Travesset. "General purpose molecular dynamics
  simulations fully implemented on graphics processing units", Journal of
  Computational Physics 227 (2008) 5342--5359
* J Glaser, T D Nguyen, J A Anderson, P Liu, F Spiga, J A Millan, D C Morse, and
  S C Glotzer. "Strong scaling of general-purpose molecular dynamics simulations
  on GPUs", Computer Physics Communications 192 (2015) 97--107
-----
notice(2): Error calling cudaGetDeviceCount(). No NVIDIA driver is present, or this user
notice(2): does not have readwrite permissions on /dev/nvidia*
notice(2): Ignoring any GPUs in the system.
Traceback (most recent call last):
  File "Ramp_84.py", line 44, in <module>
    hoomd.context.initialize("--mode=gpu");
  File "/usr/local/lib/python3.5/dist-packages/hoomd/context.py", line 240, in initialize
    _create_exec_conf();
  File "/usr/local/lib/python3.5/dist-packages/hoomd/context.py", line 278, in _create_exec_conf
    exec_conf = _hoomd.ExecutionConfiguration(exec_mode, gpu_id, options.min_cpu, options.ignore_display, msg, nrank);
RuntimeError: Error initializing execution configuration
[33mWARNING: Skipping user bind, non existent bind point (file) in container: '/usr/bin/nvidia-smi'
[0m[33mWARNING: Skipping user bind, non existent bind point (file) in container: '/usr/bin/nvidia-debugdump'
[0m[33mWARNING: Skipping user bind, non existent bind point (file) in container: '/usr/bin/nvidia-persistenced'
[0m[33mWARNING: Skipping user bind, non existent bind point (file) in container: '/usr/bin/nvidia-cuda-mps-control'
[0m[33mWARNING: Skipping user bind, non existent bind point (file) in container: '/usr/bin/nvidia-cuda-mps-server'
[0m**ERROR**: No capable GPUs were found!
HOOMD-blue 2.3.5 CUDA (8.0) DOUBLE HPMC_MIXED TBB SSE SSE2 
Compiled: 10/08/18
Copyright 2009-2018 The Regents of the University of Michigan.
-----
You are using HOOMD-blue. Please cite the following:
* J A Anderson, C D Lorenz, and A Travesset. "General purpose molecular dynamics
  simulations fully implemented on graphics processing units", Journal of
  Computational Physics 227 (2008) 5342--5359
* J Glaser, T D Nguyen, J A Anderson, P Liu, F Spiga, J A Millan, D C Morse, and
  S C Glotzer. "Strong scaling of general-purpose molecular dynamics simulations
  on GPUs", Computer Physics Communications 192 (2015) 97--107
-----
notice(2): Error calling cudaGetDeviceCount(). No NVIDIA driver is present, or this user
notice(2): does not have readwrite permissions on /dev/nvidia*
notice(2): Ignoring any GPUs in the system.
Traceback (most recent call last):
  File "Ramp_86.py", line 44, in <module>
    hoomd.context.initialize("--mode=gpu");
  File "/usr/local/lib/python3.5/dist-packages/hoomd/context.py", line 240, in initialize
    _create_exec_conf();
  File "/usr/local/lib/python3.5/dist-packages/hoomd/context.py", line 278, in _create_exec_conf
    exec_conf = _hoomd.ExecutionConfiguration(exec_mode, gpu_id, options.min_cpu, options.ignore_display, msg, nrank);
RuntimeError: Error initializing execution configuration
[33mWARNING: Skipping user bind, non existent bind point (file) in container: '/usr/bin/nvidia-smi'
[0m[33mWARNING: Skipping user bind, non existent bind point (file) in container: '/usr/bin/nvidia-debugdump'
[0m[33mWARNING: Skipping user bind, non existent bind point (file) in container: '/usr/bin/nvidia-persistenced'
[0m[33mWARNING: Skipping user bind, non existent bind point (file) in container: '/usr/bin/nvidia-cuda-mps-control'
[0m[33mWARNING: Skipping user bind, non existent bind point (file) in container: '/usr/bin/nvidia-cuda-mps-server'
[0m**ERROR**: No capable GPUs were found!
HOOMD-blue 2.3.5 CUDA (8.0) DOUBLE HPMC_MIXED TBB SSE SSE2 
Compiled: 10/08/18
Copyright 2009-2018 The Regents of the University of Michigan.
-----
You are using HOOMD-blue. Please cite the following:
* J A Anderson, C D Lorenz, and A Travesset. "General purpose molecular dynamics
  simulations fully implemented on graphics processing units", Journal of
  Computational Physics 227 (2008) 5342--5359
* J Glaser, T D Nguyen, J A Anderson, P Liu, F Spiga, J A Millan, D C Morse, and
  S C Glotzer. "Strong scaling of general-purpose molecular dynamics simulations
  on GPUs", Computer Physics Communications 192 (2015) 97--107
-----
notice(2): Error calling cudaGetDeviceCount(). No NVIDIA driver is present, or this user
notice(2): does not have readwrite permissions on /dev/nvidia*
notice(2): Ignoring any GPUs in the system.
Traceback (most recent call last):
  File "Ramp_88.py", line 44, in <module>
    hoomd.context.initialize("--mode=gpu");
  File "/usr/local/lib/python3.5/dist-packages/hoomd/context.py", line 240, in initialize
    _create_exec_conf();
  File "/usr/local/lib/python3.5/dist-packages/hoomd/context.py", line 278, in _create_exec_conf
    exec_conf = _hoomd.ExecutionConfiguration(exec_mode, gpu_id, options.min_cpu, options.ignore_display, msg, nrank);
RuntimeError: Error initializing execution configuration
[33mWARNING: Skipping user bind, non existent bind point (file) in container: '/usr/bin/nvidia-smi'
[0m[33mWARNING: Skipping user bind, non existent bind point (file) in container: '/usr/bin/nvidia-debugdump'
[0m[33mWARNING: Skipping user bind, non existent bind point (file) in container: '/usr/bin/nvidia-persistenced'
[0m[33mWARNING: Skipping user bind, non existent bind point (file) in container: '/usr/bin/nvidia-cuda-mps-control'
[0m[33mWARNING: Skipping user bind, non existent bind point (file) in container: '/usr/bin/nvidia-cuda-mps-server'
[0m**ERROR**: No capable GPUs were found!
HOOMD-blue 2.3.5 CUDA (8.0) DOUBLE HPMC_MIXED TBB SSE SSE2 
Compiled: 10/08/18
Copyright 2009-2018 The Regents of the University of Michigan.
-----
You are using HOOMD-blue. Please cite the following:
* J A Anderson, C D Lorenz, and A Travesset. "General purpose molecular dynamics
  simulations fully implemented on graphics processing units", Journal of
  Computational Physics 227 (2008) 5342--5359
* J Glaser, T D Nguyen, J A Anderson, P Liu, F Spiga, J A Millan, D C Morse, and
  S C Glotzer. "Strong scaling of general-purpose molecular dynamics simulations
  on GPUs", Computer Physics Communications 192 (2015) 97--107
-----
notice(2): Error calling cudaGetDeviceCount(). No NVIDIA driver is present, or this user
notice(2): does not have readwrite permissions on /dev/nvidia*
notice(2): Ignoring any GPUs in the system.
Traceback (most recent call last):
  File "Ramp_90.py", line 44, in <module>
    hoomd.context.initialize("--mode=gpu");
  File "/usr/local/lib/python3.5/dist-packages/hoomd/context.py", line 240, in initialize
    _create_exec_conf();
  File "/usr/local/lib/python3.5/dist-packages/hoomd/context.py", line 278, in _create_exec_conf
    exec_conf = _hoomd.ExecutionConfiguration(exec_mode, gpu_id, options.min_cpu, options.ignore_display, msg, nrank);
RuntimeError: Error initializing execution configuration
