[33mWARNING: Skipping user bind, non existent bind point (file) in container: '/usr/bin/nvidia-smi'
[0m[33mWARNING: Skipping user bind, non existent bind point (file) in container: '/usr/bin/nvidia-debugdump'
[0m[33mWARNING: Skipping user bind, non existent bind point (file) in container: '/usr/bin/nvidia-persistenced'
[0m[33mWARNING: Skipping user bind, non existent bind point (file) in container: '/usr/bin/nvidia-cuda-mps-control'
[0m[33mWARNING: Skipping user bind, non existent bind point (file) in container: '/usr/bin/nvidia-cuda-mps-server'
[0mHOOMD-blue 2.3.5 CUDA (8.0) DOUBLE HPMC_MIXED TBB SSE SSE2 
Compiled: 10/08/18
Copyright 2009-2018 The Regents of the University of Michigan.
-----
You are using HOOMD-blue. Please cite the following:
* J A Anderson, C D Lorenz, and A Travesset. "General purpose molecular dynamics
  simulations fully implemented on graphics processing units", Journal of
  Computational Physics 227 (2008) 5342--5359
* J Glaser, T D Nguyen, J A Anderson, P Liu, F Spiga, J A Millan, D C Morse, and
  S C Glotzer. "Strong scaling of general-purpose molecular dynamics simulations
  on GPUs", Computer Physics Communications 192 (2015) 97--107
-----
notice(2): This system is not compute exclusive, using local rank to select GPUs
HOOMD-blue is running on the following GPU(s):
 [0]            Tesla K20m  13 SM_3.5 @ 0.706 GHz, 4743 MiB DRAM
Ramp_80.py:048  |  system = hoomd.init.read_gsd(ramp_file, frame = -1);
notice(2): Group "all" created containing 1004 particles
Ramp_80.py:052  |  rigid = hoomd.md.constrain.rigid();
notice(2): constrain.rigid(): Creating 1000 rigid bodies (adding 8000 particles)
Ramp_80.py:064  |  nl = hoomd.md.nlist.tree();
-----
You are using tree neighbor lists. Please cite the following:
* M P Howard, J A Anderson, A Nikoubashman, S C Glotzer, and A Z
  Panagiotopoulos. "Efficient neighbor list calculation for molecular simulation
  of colloidal systems using graphics processing units", Computer Physics
  Communications 203 (2016) 45--52
-----
Ramp_80.py:066  |  lj = hoomd.md.pair.lj(r_cut = 3.5, nlist = nl)
Ramp_80.py:067  |  lj.set_params(mode = 'shift')
Ramp_80.py:071  |  lj.pair_coeff.set('NP','NP', epsilon = 1.0, sigma = 5.0);
Ramp_80.py:072  |  lj.pair_coeff.set('M' ,'M' , epsilon = 1.0, sigma = 1.0);
Ramp_80.py:073  |  lj.pair_coeff.set('A' ,'A' , epsilon = 1.0, sigma = 1.0);
Ramp_80.py:074  |  lj.pair_coeff.set('M' ,'A' , epsilon = 1.0, sigma = 1.0);
Ramp_80.py:075  |  lj.pair_coeff.set('NP','M' , epsilon = 1.0, sigma = 3.0);
Ramp_80.py:076  |  lj.pair_coeff.set('NP','A' , epsilon = 1.0, sigma = 3.0);
Ramp_80.py:080  |  hoomd.md.integrate.mode_standard(dt = 0.005);
Ramp_80.py:084  |  nanoparticles = hoomd.group.type(name = 'Nano_Particles', type = 'NP');
notice(2): Group "Nano_Particles" created containing 4 particles
Ramp_80.py:085  |  mesogens = hoomd.group.rigid_center();
notice(2): Group "rigid_center" created containing 1000 particles
notice(2): Group "NP_Mes" created containing 1004 particles
Ramp_80.py:092  |  npt = hoomd.md.integrate.npt(group = groupNP_mes, kT = temp, tau = 7.5, tauP = 7.5, P = p_max);
Ramp_80.py:101  |  log = hoomd.analyze.log(filename = log_file,
                         quantities = ['num_particles',
                                     'ndof',
                                     'translational_ndof',
                                     'rotational_ndof',
                                     'potential_energy',
                                     'kinetic_energy',
                                     'translational_kinetic_energy',
                                     'rotational_kinetic_energy',
                                     'temperature',
                                     'pressure',
                                      'volume'],
                         period = 1e3,
                         overwrite = True);
Ramp_80.py:117  |                 group = hoomd.group.all(),
Ramp_80.py:115  |  gsd = hoomd.dump.gsd(gsd_file,
               period = 1e3,
               group = hoomd.group.all(),
               overwrite = True); 
Ramp_80.py:119  |  meso_gsd = hoomd.dump.gsd(meso_gsd_file,
               period = 1e3,
               group = groupNP_mes,
               overwrite = True); 
Ramp_80.py:130  |  hoomd.run(steps_ramp)
notice(2): -- Neighborlist exclusion statistics -- :
notice(2): Particles with 0 exclusions             : 9004
notice(2): Neighbors included by diameter          : no
notice(2): Neighbors excluded when in the same body: yes
** starting run **
Time 00:00:10 | Step 880262 / 978000 | TPS 226.046 | ETA 00:07:12
Time 00:00:20 | Step 882753 / 978000 | TPS 249.011 | ETA 00:06:22
Time 00:00:30 | Step 885233 / 978000 | TPS 247.875 | ETA 00:06:14
Time 00:00:40 | Step 887730 / 978000 | TPS 249.591 | ETA 00:06:01
Time 00:00:50 | Step 890209 / 978000 | TPS 247.758 | ETA 00:05:54
Time 00:01:00 | Step 892685 / 978000 | TPS 247.579 | ETA 00:05:44
Time 00:01:10 | Step 895217 / 978000 | TPS 253.196 | ETA 00:05:26
Time 00:01:20 | Step 897704 / 978000 | TPS 248.62 | ETA 00:05:22
Time 00:01:30 | Step 900221 / 978000 | TPS 251.667 | ETA 00:05:09
Time 00:01:40 | Step 902790 / 978000 | TPS 256.879 | ETA 00:04:52
Time 00:01:50 | Step 905379 / 978000 | TPS 258.824 | ETA 00:04:40
Time 00:02:00 | Step 907973 / 978000 | TPS 259.398 | ETA 00:04:29
Time 00:02:10 | Step 910542 / 978000 | TPS 256.897 | ETA 00:04:22
Time 00:02:20 | Step 913112 / 978000 | TPS 256.87 | ETA 00:04:12
Time 00:02:30 | Step 915689 / 978000 | TPS 257.544 | ETA 00:04:01
Time 00:02:40 | Step 918248 / 978000 | TPS 255.872 | ETA 00:03:53
Time 00:02:50 | Step 920770 / 978000 | TPS 252.182 | ETA 00:03:46
Time 00:03:00 | Step 923265 / 978000 | TPS 249.416 | ETA 00:03:39
Time 00:03:10 | Step 925823 / 978000 | TPS 255.654 | ETA 00:03:24
Time 00:03:20 | Step 928390 / 978000 | TPS 256.532 | ETA 00:03:13
Time 00:03:30 | Step 930911 / 978000 | TPS 251.993 | ETA 00:03:06
Time 00:03:40 | Step 933462 / 978000 | TPS 255.09 | ETA 00:02:54
Time 00:03:50 | Step 938401 / 978000 | TPS 481.377 | ETA 00:01:22
Time 00:04:00 | Step 945001 / 978000 | TPS 651.723 | ETA 00:00:50
Time 00:04:10 | Step 951601 / 978000 | TPS 652.293 | ETA 00:00:40
Time 00:04:20 | Step 958201 / 978000 | TPS 651.797 | ETA 00:00:30
Time 00:04:31 | Step 964801 / 978000 | TPS 652.234 | ETA 00:00:20
Time 00:04:41 | Step 971401 / 978000 | TPS 651.839 | ETA 00:00:10
Time 00:04:50 | Step 978000 / 978000 | TPS 673.22 | ETA 00:00:00
Average TPS: 343.943
---------
-- Neighborlist stats:
27681 normal updates / 334 forced updates / 0 dangerous updates
n_neigh_min: 0 / n_neigh_max: 0 / n_neigh_avg: 0
shortest rebuild period: 1
** run complete **
