[33mWARNING: Skipping user bind, non existent bind point (file) in container: '/usr/bin/nvidia-smi'
[0m[33mWARNING: Skipping user bind, non existent bind point (file) in container: '/usr/bin/nvidia-debugdump'
[0m[33mWARNING: Skipping user bind, non existent bind point (file) in container: '/usr/bin/nvidia-persistenced'
[0m[33mWARNING: Skipping user bind, non existent bind point (file) in container: '/usr/bin/nvidia-cuda-mps-control'
[0m[33mWARNING: Skipping user bind, non existent bind point (file) in container: '/usr/bin/nvidia-cuda-mps-server'
[0mHOOMD-blue 2.3.5 CUDA (8.0) DOUBLE HPMC_MIXED TBB SSE SSE2 
Compiled: 10/08/18
Copyright 2009-2018 The Regents of the University of Michigan.
-----
You are using HOOMD-blue. Please cite the following:
* J A Anderson, C D Lorenz, and A Travesset. "General purpose molecular dynamics
  simulations fully implemented on graphics processing units", Journal of
  Computational Physics 227 (2008) 5342--5359
* J Glaser, T D Nguyen, J A Anderson, P Liu, F Spiga, J A Millan, D C Morse, and
  S C Glotzer. "Strong scaling of general-purpose molecular dynamics simulations
  on GPUs", Computer Physics Communications 192 (2015) 97--107
-----
notice(2): This system is not compute exclusive, using local rank to select GPUs
HOOMD-blue is running on the following GPU(s):
 [0]            Tesla K20m  13 SM_3.5 @ 0.706 GHz, 4743 MiB DRAM
Equilibrium_70.py:047  |  system = hoomd.init.read_gsd(ramp_file,frame = -1)
notice(2): Group "all" created containing 1004 particles
Equilibrium_70.py:051  |  rigid = hoomd.md.constrain.rigid();
notice(2): constrain.rigid(): Creating 1000 rigid bodies (adding 8000 particles)
Equilibrium_70.py:063  |  nl = hoomd.md.nlist.tree(r_buff = 0.5, check_period = 1); #-----Implementation of fast neighborhood list.
-----
You are using tree neighbor lists. Please cite the following:
* M P Howard, J A Anderson, A Nikoubashman, S C Glotzer, and A Z
  Panagiotopoulos. "Efficient neighbor list calculation for molecular simulation
  of colloidal systems using graphics processing units", Computer Physics
  Communications 203 (2016) 45--52
-----
Equilibrium_70.py:065  |  lj = hoomd.md.pair.lj(r_cut = 3.5, nlist=nl)
Equilibrium_70.py:066  |  lj.set_params(mode='shift')
Equilibrium_70.py:070  |  lj.pair_coeff.set('NP','NP', epsilon = 1.0, sigma = 5.0);
Equilibrium_70.py:071  |  lj.pair_coeff.set('M' ,'M' , epsilon = 1.0, sigma = 1.0);
Equilibrium_70.py:072  |  lj.pair_coeff.set('A' ,'A' , epsilon = 1.0, sigma = 1.0);
Equilibrium_70.py:073  |  lj.pair_coeff.set('M' ,'A' , epsilon = 1.0, sigma = 1.0);
Equilibrium_70.py:074  |  lj.pair_coeff.set('NP','M' , epsilon = 1.0, sigma = 3.0);
Equilibrium_70.py:075  |  lj.pair_coeff.set('NP','A' , epsilon = 1.0, sigma = 3.0);
Equilibrium_70.py:079  |  hoomd.md.integrate.mode_standard(dt = 0.005);
Equilibrium_70.py:083  |  nanoparticles = hoomd.group.type(name = 'Nano_Particles', type = 'NP');
notice(2): Group "Nano_Particles" created containing 4 particles
Equilibrium_70.py:084  |  mesogens = hoomd.group.rigid_center();
notice(2): Group "rigid_center" created containing 1000 particles
notice(2): Group "NP_Mes" created containing 1004 particles
Equilibrium_70.py:089  |  npt = hoomd.md.integrate.npt(group = mesogens, kT = temp, tau = 20.0, tauP = 20.0, P = pressure);
Equilibrium_70.py:096  |  log = hoomd.analyze.log(filename = log_file,
                         quantities = ['num_particles',
                                     'ndof',
                                     'translational_ndof',
                                     'rotational_ndof',
                                     'potential_energy',
                                     'kinetic_energy',
                                     'translational_kinetic_energy',
                                     'rotational_kinetic_energy',
                                     'temperature',
                                     'pressure',
                                      'volume'],
                         period = 1e3,
                         overwrite = True);
Equilibrium_70.py:112  |                 group = hoomd.group.all(),
Equilibrium_70.py:110  |  gsd = hoomd.dump.gsd(gsd_file,
               period = 1e3,
               group = hoomd.group.all(),
               overwrite=True); 
Equilibrium_70.py:114  |  meso_gsd = hoomd.dump.gsd(meso_gsd_file,
               period = 1e3,
               group = mesogens,
               overwrite=True); 
Equilibrium_70.py:125  |  hoomd.run(steps)
notice(2): -- Neighborlist exclusion statistics -- :
notice(2): Particles with 0 exclusions             : 9004
notice(2): Neighbors included by diameter          : no
notice(2): Neighbors excluded when in the same body: yes
** starting run **
Time 00:00:10 | Step 690589 / 788000 | TPS 258.777 | ETA 00:06:16
Time 00:00:20 | Step 694801 / 788000 | TPS 418.539 | ETA 00:03:42
Time 00:00:30 | Step 701401 / 788000 | TPS 657.169 | ETA 00:02:11
Time 00:00:40 | Step 708001 / 788000 | TPS 657.212 | ETA 00:02:01
Time 00:00:50 | Step 714601 / 788000 | TPS 657.696 | ETA 00:01:51
Time 00:01:00 | Step 721201 / 788000 | TPS 657.2 | ETA 00:01:41
Time 00:01:10 | Step 727801 / 788000 | TPS 657.8 | ETA 00:01:31
Time 00:01:20 | Step 734401 / 788000 | TPS 657.223 | ETA 00:01:21
Time 00:01:30 | Step 741001 / 788000 | TPS 657.302 | ETA 00:01:11
Time 00:01:40 | Step 747601 / 788000 | TPS 657.694 | ETA 00:01:01
Time 00:01:50 | Step 754201 / 788000 | TPS 657.371 | ETA 00:00:51
Time 00:02:00 | Step 760801 / 788000 | TPS 657.775 | ETA 00:00:41
Time 00:02:10 | Step 767401 / 788000 | TPS 657.304 | ETA 00:00:31
Time 00:02:20 | Step 774001 / 788000 | TPS 657.365 | ETA 00:00:21
Time 00:02:30 | Step 780601 / 788000 | TPS 657.715 | ETA 00:00:11
Time 00:02:40 | Step 787201 / 788000 | TPS 657.299 | ETA 00:00:01
Time 00:02:41 | Step 788000 / 788000 | TPS 798.823 | ETA 00:00:00
Average TPS: 618.757
---------
-- Neighborlist stats:
1497 normal updates / 334 forced updates / 0 dangerous updates
n_neigh_min: 0 / n_neigh_max: 2 / n_neigh_avg: 0.000444247
shortest rebuild period: 1
** run complete **
