[33mWARNING: Skipping user bind, non existent bind point (file) in container: '/usr/bin/nvidia-smi'
[0m[33mWARNING: Skipping user bind, non existent bind point (file) in container: '/usr/bin/nvidia-debugdump'
[0m[33mWARNING: Skipping user bind, non existent bind point (file) in container: '/usr/bin/nvidia-persistenced'
[0m[33mWARNING: Skipping user bind, non existent bind point (file) in container: '/usr/bin/nvidia-cuda-mps-control'
[0m[33mWARNING: Skipping user bind, non existent bind point (file) in container: '/usr/bin/nvidia-cuda-mps-server'
[0mHOOMD-blue 2.3.5 CUDA (8.0) DOUBLE HPMC_MIXED TBB SSE SSE2 
Compiled: 10/08/18
Copyright 2009-2018 The Regents of the University of Michigan.
-----
You are using HOOMD-blue. Please cite the following:
* J A Anderson, C D Lorenz, and A Travesset. "General purpose molecular dynamics
  simulations fully implemented on graphics processing units", Journal of
  Computational Physics 227 (2008) 5342--5359
* J Glaser, T D Nguyen, J A Anderson, P Liu, F Spiga, J A Millan, D C Morse, and
  S C Glotzer. "Strong scaling of general-purpose molecular dynamics simulations
  on GPUs", Computer Physics Communications 192 (2015) 97--107
-----
notice(2): This system is not compute exclusive, using local rank to select GPUs
HOOMD-blue is running on the following GPU(s):
 [0]            Tesla K20m  13 SM_3.5 @ 0.706 GHz, 4743 MiB DRAM
Equilibrium_72.py:047  |  system = hoomd.init.read_gsd(ramp_file,frame = -1)
notice(2): Group "all" created containing 1004 particles
Equilibrium_72.py:051  |  rigid = hoomd.md.constrain.rigid();
notice(2): constrain.rigid(): Creating 1000 rigid bodies (adding 8000 particles)
Equilibrium_72.py:063  |  nl = hoomd.md.nlist.tree(r_buff = 0.5, check_period = 1); #-----Implementation of fast neighborhood list.
-----
You are using tree neighbor lists. Please cite the following:
* M P Howard, J A Anderson, A Nikoubashman, S C Glotzer, and A Z
  Panagiotopoulos. "Efficient neighbor list calculation for molecular simulation
  of colloidal systems using graphics processing units", Computer Physics
  Communications 203 (2016) 45--52
-----
Equilibrium_72.py:065  |  lj = hoomd.md.pair.lj(r_cut = 3.5, nlist=nl)
Equilibrium_72.py:066  |  lj.set_params(mode='shift')
Equilibrium_72.py:070  |  lj.pair_coeff.set('NP','NP', epsilon = 1.0, sigma = 5.0);
Equilibrium_72.py:071  |  lj.pair_coeff.set('M' ,'M' , epsilon = 1.0, sigma = 1.0);
Equilibrium_72.py:072  |  lj.pair_coeff.set('A' ,'A' , epsilon = 1.0, sigma = 1.0);
Equilibrium_72.py:073  |  lj.pair_coeff.set('M' ,'A' , epsilon = 1.0, sigma = 1.0);
Equilibrium_72.py:074  |  lj.pair_coeff.set('NP','M' , epsilon = 1.0, sigma = 3.0);
Equilibrium_72.py:075  |  lj.pair_coeff.set('NP','A' , epsilon = 1.0, sigma = 3.0);
Equilibrium_72.py:079  |  hoomd.md.integrate.mode_standard(dt = 0.005);
Equilibrium_72.py:083  |  nanoparticles = hoomd.group.type(name = 'Nano_Particles', type = 'NP');
notice(2): Group "Nano_Particles" created containing 4 particles
Equilibrium_72.py:084  |  mesogens = hoomd.group.rigid_center();
notice(2): Group "rigid_center" created containing 1000 particles
notice(2): Group "NP_Mes" created containing 1004 particles
Equilibrium_72.py:089  |  npt = hoomd.md.integrate.npt(group = mesogens, kT = temp, tau = 17.5, tauP = 17.5, P = pressure);
Equilibrium_72.py:096  |  log = hoomd.analyze.log(filename = log_file,
                         quantities = ['num_particles',
                                     'ndof',
                                     'translational_ndof',
                                     'rotational_ndof',
                                     'potential_energy',
                                     'kinetic_energy',
                                     'translational_kinetic_energy',
                                     'rotational_kinetic_energy',
                                     'temperature',
                                     'pressure',
                                      'volume'],
                         period = 1e3,
                         overwrite = True);
Equilibrium_72.py:112  |                 group = hoomd.group.all(),
Equilibrium_72.py:110  |  gsd = hoomd.dump.gsd(gsd_file,
               period = 1e3,
               group = hoomd.group.all(),
               overwrite=True); 
Equilibrium_72.py:114  |  meso_gsd = hoomd.dump.gsd(meso_gsd_file,
               period = 1e3,
               group = mesogens,
               overwrite=True); 
Equilibrium_72.py:125  |  hoomd.run(steps)
notice(2): -- Neighborlist exclusion statistics -- :
notice(2): Particles with 0 exclusions             : 9004
notice(2): Neighbors included by diameter          : no
notice(2): Neighbors excluded when in the same body: yes
** starting run **
Time 00:00:10 | Step 741301 / 837000 | TPS 418.751 | ETA 00:03:48
Time 00:00:20 | Step 747772 / 837000 | TPS 647.097 | ETA 00:02:17
Time 00:00:30 | Step 754201 / 837000 | TPS 623.121 | ETA 00:02:12
Time 00:00:40 | Step 760675 / 837000 | TPS 647.396 | ETA 00:01:57
Time 00:00:51 | Step 767101 / 837000 | TPS 623.001 | ETA 00:01:52
Time 00:01:01 | Step 773572 / 837000 | TPS 647.077 | ETA 00:01:38
Time 00:01:11 | Step 780001 / 837000 | TPS 623.156 | ETA 00:01:31
Time 00:01:21 | Step 786472 / 837000 | TPS 647.087 | ETA 00:01:18
Time 00:01:31 | Step 792901 / 837000 | TPS 623.68 | ETA 00:01:10
Time 00:01:41 | Step 799365 / 837000 | TPS 646.386 | ETA 00:00:58
Time 00:01:52 | Step 805801 / 837000 | TPS 624.196 | ETA 00:00:49
Time 00:02:02 | Step 812256 / 837000 | TPS 645.477 | ETA 00:00:38
Time 00:02:12 | Step 818701 / 837000 | TPS 624.878 | ETA 00:00:29
Time 00:02:22 | Step 825165 / 837000 | TPS 646.371 | ETA 00:00:18
Time 00:02:32 | Step 831601 / 837000 | TPS 624.129 | ETA 00:00:08
Time 00:02:40 | Step 837000 / 837000 | TPS 660.84 | ETA 00:00:00
Average TPS: 622.523
---------
-- Neighborlist stats:
455 normal updates / 334 forced updates / 0 dangerous updates
n_neigh_min: 0 / n_neigh_max: 2 / n_neigh_avg: 0.000666371
shortest rebuild period: 1
** run complete **
