[33mWARNING: Skipping user bind, non existent bind point (file) in container: '/usr/bin/nvidia-smi'
[0m[33mWARNING: Skipping user bind, non existent bind point (file) in container: '/usr/bin/nvidia-debugdump'
[0m[33mWARNING: Skipping user bind, non existent bind point (file) in container: '/usr/bin/nvidia-persistenced'
[0m[33mWARNING: Skipping user bind, non existent bind point (file) in container: '/usr/bin/nvidia-cuda-mps-control'
[0m[33mWARNING: Skipping user bind, non existent bind point (file) in container: '/usr/bin/nvidia-cuda-mps-server'
[0mHOOMD-blue 2.3.5 CUDA (8.0) DOUBLE HPMC_MIXED TBB SSE SSE2 
Compiled: 10/08/18
Copyright 2009-2018 The Regents of the University of Michigan.
-----
You are using HOOMD-blue. Please cite the following:
* J A Anderson, C D Lorenz, and A Travesset. "General purpose molecular dynamics
  simulations fully implemented on graphics processing units", Journal of
  Computational Physics 227 (2008) 5342--5359
* J Glaser, T D Nguyen, J A Anderson, P Liu, F Spiga, J A Millan, D C Morse, and
  S C Glotzer. "Strong scaling of general-purpose molecular dynamics simulations
  on GPUs", Computer Physics Communications 192 (2015) 97--107
-----
notice(2): This system is not compute exclusive, using local rank to select GPUs
HOOMD-blue is running on the following GPU(s):
 [0]            Tesla K20m  13 SM_3.5 @ 0.706 GHz, 4743 MiB DRAM
Equilibrium_70.py:047  |  system = hoomd.init.read_gsd(ramp_file,frame = -1)
notice(2): Group "all" created containing 1004 particles
Equilibrium_70.py:051  |  rigid = hoomd.md.constrain.rigid();
notice(2): constrain.rigid(): Creating 1000 rigid bodies (adding 8000 particles)
Equilibrium_70.py:063  |  nl = hoomd.md.nlist.tree(r_buff = 0.5, check_period = 1); #-----Implementation of fast neighborhood list.
-----
You are using tree neighbor lists. Please cite the following:
* M P Howard, J A Anderson, A Nikoubashman, S C Glotzer, and A Z
  Panagiotopoulos. "Efficient neighbor list calculation for molecular simulation
  of colloidal systems using graphics processing units", Computer Physics
  Communications 203 (2016) 45--52
-----
Equilibrium_70.py:065  |  lj = hoomd.md.pair.lj(r_cut = 3.5, nlist=nl)
Equilibrium_70.py:066  |  lj.set_params(mode='shift')
Equilibrium_70.py:070  |  lj.pair_coeff.set('NP','NP', epsilon = 1.0, sigma = 5.0);
Equilibrium_70.py:071  |  lj.pair_coeff.set('M' ,'M' , epsilon = 1.0, sigma = 1.0);
Equilibrium_70.py:072  |  lj.pair_coeff.set('A' ,'A' , epsilon = 1.0, sigma = 1.0);
Equilibrium_70.py:073  |  lj.pair_coeff.set('M' ,'A' , epsilon = 1.0, sigma = 1.0);
Equilibrium_70.py:074  |  lj.pair_coeff.set('NP','M' , epsilon = 1.0, sigma = 3.0);
Equilibrium_70.py:075  |  lj.pair_coeff.set('NP','A' , epsilon = 1.0, sigma = 3.0);
Equilibrium_70.py:079  |  hoomd.md.integrate.mode_standard(dt = 0.005);
Equilibrium_70.py:083  |  nanoparticles = hoomd.group.type(name = 'Nano_Particles', type = 'NP');
notice(2): Group "Nano_Particles" created containing 4 particles
Equilibrium_70.py:084  |  mesogens = hoomd.group.rigid_center();
notice(2): Group "rigid_center" created containing 1000 particles
notice(2): Group "NP_Mes" created containing 1004 particles
Equilibrium_70.py:089  |  npt = hoomd.md.integrate.npt(group = mesogens, kT = temp, tau = 17.5, tauP =17.5, P = pressure);
Equilibrium_70.py:096  |  log = hoomd.analyze.log(filename = log_file,
                         quantities = ['num_particles',
                                     'ndof',
                                     'translational_ndof',
                                     'rotational_ndof',
                                     'potential_energy',
                                     'kinetic_energy',
                                     'translational_kinetic_energy',
                                     'rotational_kinetic_energy',
                                     'temperature',
                                     'pressure',
                                      'volume'],
                         period = 1e3,
                         overwrite = True);
Equilibrium_70.py:112  |                 group = hoomd.group.all(),
Equilibrium_70.py:110  |  gsd = hoomd.dump.gsd(gsd_file,
               period = 1e3,
               group = hoomd.group.all(),
               overwrite=True); 
Equilibrium_70.py:114  |  meso_gsd = hoomd.dump.gsd(meso_gsd_file,
               period = 1e3,
               group = mesogens,
               overwrite=True); 
Equilibrium_70.py:125  |  hoomd.run(steps)
notice(2): -- Neighborlist exclusion statistics -- :
notice(2): Particles with 0 exclusions             : 9004
notice(2): Neighbors included by diameter          : no
notice(2): Neighbors excluded when in the same body: yes
** starting run **
Time 00:00:10 | Step 690604 / 788000 | TPS 260.202 | ETA 00:06:14
Time 00:00:20 | Step 693424 / 788000 | TPS 281.988 | ETA 00:05:35
Time 00:00:30 | Step 696291 / 788000 | TPS 286.691 | ETA 00:05:19
Time 00:00:40 | Step 699169 / 788000 | TPS 287.797 | ETA 00:05:08
Time 00:00:50 | Step 702075 / 788000 | TPS 290.599 | ETA 00:04:55
Time 00:01:00 | Step 704979 / 788000 | TPS 290.386 | ETA 00:04:45
Time 00:01:10 | Step 707892 / 788000 | TPS 291.108 | ETA 00:04:35
Time 00:01:20 | Step 710770 / 788000 | TPS 287.611 | ETA 00:04:28
Time 00:01:30 | Step 713569 / 788000 | TPS 279.714 | ETA 00:04:26
Time 00:01:40 | Step 716413 / 788000 | TPS 284.33 | ETA 00:04:11
Time 00:01:50 | Step 719182 / 788000 | TPS 276.83 | ETA 00:04:08
Time 00:02:00 | Step 721959 / 788000 | TPS 277.576 | ETA 00:03:57
Time 00:02:10 | Step 724763 / 788000 | TPS 280.383 | ETA 00:03:45
Time 00:02:20 | Step 727564 / 788000 | TPS 279.886 | ETA 00:03:35
Time 00:02:30 | Step 730370 / 788000 | TPS 280.485 | ETA 00:03:25
Time 00:02:40 | Step 733252 / 788000 | TPS 288.157 | ETA 00:03:09
Time 00:02:50 | Step 736169 / 788000 | TPS 291.592 | ETA 00:02:57
Time 00:03:00 | Step 739084 / 788000 | TPS 291.456 | ETA 00:02:47
Time 00:03:10 | Step 741966 / 788000 | TPS 288.128 | ETA 00:02:39
Time 00:03:20 | Step 744857 / 788000 | TPS 288.877 | ETA 00:02:29
Time 00:03:30 | Step 747682 / 788000 | TPS 282.358 | ETA 00:02:22
Time 00:03:40 | Step 750511 / 788000 | TPS 282.831 | ETA 00:02:12
Time 00:03:50 | Step 753322 / 788000 | TPS 280.978 | ETA 00:02:03
Time 00:04:00 | Step 756150 / 788000 | TPS 282.71 | ETA 00:01:52
Time 00:04:10 | Step 759004 / 788000 | TPS 285.248 | ETA 00:01:41
Time 00:04:20 | Step 761821 / 788000 | TPS 281.555 | ETA 00:01:32
Time 00:04:30 | Step 764654 / 788000 | TPS 283.285 | ETA 00:01:22
Time 00:04:40 | Step 767517 / 788000 | TPS 286.12 | ETA 00:01:11
Time 00:04:50 | Step 770375 / 788000 | TPS 285.791 | ETA 00:01:01
Time 00:05:00 | Step 773285 / 788000 | TPS 290.789 | ETA 00:00:50
Time 00:05:10 | Step 776170 / 788000 | TPS 288.399 | ETA 00:00:41
Time 00:05:20 | Step 779038 / 788000 | TPS 286.552 | ETA 00:00:31
Time 00:05:30 | Step 781929 / 788000 | TPS 288.905 | ETA 00:00:21
Time 00:05:40 | Step 784791 / 788000 | TPS 285.991 | ETA 00:00:11
Time 00:05:50 | Step 787637 / 788000 | TPS 284.599 | ETA 00:00:01
Time 00:05:51 | Step 788000 / 788000 | TPS 282.895 | ETA 00:00:00
Average TPS: 284.562
---------
-- Neighborlist stats:
33662 normal updates / 334 forced updates / 0 dangerous updates
n_neigh_min: 45 / n_neigh_max: 193 / n_neigh_avg: 145.492
shortest rebuild period: 2
** run complete **
