[33mWARNING: Skipping user bind, non existent bind point (file) in container: '/usr/bin/nvidia-smi'
[0m[33mWARNING: Skipping user bind, non existent bind point (file) in container: '/usr/bin/nvidia-debugdump'
[0m[33mWARNING: Skipping user bind, non existent bind point (file) in container: '/usr/bin/nvidia-persistenced'
[0m[33mWARNING: Skipping user bind, non existent bind point (file) in container: '/usr/bin/nvidia-cuda-mps-control'
[0m[33mWARNING: Skipping user bind, non existent bind point (file) in container: '/usr/bin/nvidia-cuda-mps-server'
[0mHOOMD-blue 2.3.5 CUDA (8.0) DOUBLE HPMC_MIXED TBB SSE SSE2 
Compiled: 10/08/18
Copyright 2009-2018 The Regents of the University of Michigan.
-----
You are using HOOMD-blue. Please cite the following:
* J A Anderson, C D Lorenz, and A Travesset. "General purpose molecular dynamics
  simulations fully implemented on graphics processing units", Journal of
  Computational Physics 227 (2008) 5342--5359
* J Glaser, T D Nguyen, J A Anderson, P Liu, F Spiga, J A Millan, D C Morse, and
  S C Glotzer. "Strong scaling of general-purpose molecular dynamics simulations
  on GPUs", Computer Physics Communications 192 (2015) 97--107
-----
notice(2): This system is not compute exclusive, using local rank to select GPUs
HOOMD-blue is running on the following GPU(s):
 [0]            Tesla K20m  13 SM_3.5 @ 0.706 GHz, 4743 MiB DRAM
Ramp_6_6.py:044  |  system = hoomd.init.read_gsd(ramp_file, frame = -1);
notice(2): Group "all" created containing 1004 particles
Ramp_6_6.py:048  |  rigid = hoomd.md.constrain.rigid();
notice(2): constrain.rigid(): Creating 1000 rigid bodies (adding 8000 particles)
Ramp_6_6.py:060  |  nl = hoomd.md.nlist.tree();
-----
You are using tree neighbor lists. Please cite the following:
* M P Howard, J A Anderson, A Nikoubashman, S C Glotzer, and A Z
  Panagiotopoulos. "Efficient neighbor list calculation for molecular simulation
  of colloidal systems using graphics processing units", Computer Physics
  Communications 203 (2016) 45--52
-----
Ramp_6_6.py:062  |  lj = hoomd.md.pair.lj(r_cut = 3.5, nlist = nl)
Ramp_6_6.py:063  |  lj.set_params(mode = 'shift')
Ramp_6_6.py:067  |  lj.pair_coeff.set('NP','NP', epsilon = 1.0, sigma = 5.0);
Ramp_6_6.py:068  |  lj.pair_coeff.set('M' ,'M' , epsilon = 1.0, sigma = 1.0);
Ramp_6_6.py:069  |  lj.pair_coeff.set('A' ,'A' , epsilon = 1.0, sigma = 1.0);
Ramp_6_6.py:070  |  lj.pair_coeff.set('M' ,'A' , epsilon = 1.0, sigma = 1.0);
Ramp_6_6.py:071  |  lj.pair_coeff.set('NP','M' , epsilon = 1.0, sigma = 3.0);
Ramp_6_6.py:072  |  lj.pair_coeff.set('NP','A' , epsilon = 1.0, sigma = 3.0);
Ramp_6_6.py:076  |  hoomd.md.integrate.mode_standard(dt = 0.005);
Ramp_6_6.py:080  |  nanoparticles = hoomd.group.type(name = 'Nano_Particles', type = 'NP');
notice(2): Group "Nano_Particles" created containing 4 particles
Ramp_6_6.py:081  |  mesogens = hoomd.group.rigid_center();
notice(2): Group "rigid_center" created containing 1000 particles
notice(2): Group "NP_Mes" created containing 1004 particles
Ramp_6_6.py:088  |  npt = hoomd.md.integrate.npt(group = groupNP_mes, kT = temp, tau = 5.0, tauP = 5.0, P = p_max);
Ramp_6_6.py:097  |  log = hoomd.analyze.log(filename = log_file,
                         quantities = ['num_particles',
                                     'ndof',
                                     'translational_ndof',
                                     'rotational_ndof',
                                     'potential_energy',
                                     'kinetic_energy',
                                     'translational_kinetic_energy',
                                     'rotational_kinetic_energy',
                                     'temperature',
                                     'pressure',
                                      'volume'],
                         period = 1e3,
                         overwrite = True);
Ramp_6_6.py:113  |                 group = hoomd.group.all(),
Ramp_6_6.py:111  |  gsd = hoomd.dump.gsd(gsd_file,
               period = 1e3,
               group = hoomd.group.all(),
               overwrite = True); 
Ramp_6_6.py:115  |  meso_gsd = hoomd.dump.gsd(meso_gsd_file,
               period = 1e3,
               group = groupNP_mes,
               overwrite = True); 
Ramp_6_6.py:126  |  hoomd.run(steps_ramp)
notice(2): -- Neighborlist exclusion statistics -- :
notice(2): Particles with 0 exclusions             : 9004
notice(2): Neighbors included by diameter          : no
notice(2): Neighbors excluded when in the same body: yes
** starting run **
Time 00:00:10 | Step 953013 / 1001000 | TPS 201.245 | ETA 00:03:58
Time 00:00:20 | Step 955174 / 1001000 | TPS 215.992 | ETA 00:03:32
Time 00:00:30 | Step 957384 / 1001000 | TPS 220.937 | ETA 00:03:17
Time 00:00:40 | Step 959629 / 1001000 | TPS 224.439 | ETA 00:03:04
Time 00:00:50 | Step 961819 / 1001000 | TPS 218.82 | ETA 00:02:59
Time 00:01:00 | Step 964020 / 1001000 | TPS 220.004 | ETA 00:02:48
Time 00:01:10 | Step 966245 / 1001000 | TPS 222.351 | ETA 00:02:36
Time 00:01:20 | Step 968463 / 1001000 | TPS 221.728 | ETA 00:02:26
Time 00:01:30 | Step 970642 / 1001000 | TPS 217.875 | ETA 00:02:19
Time 00:01:40 | Step 972799 / 1001000 | TPS 215.627 | ETA 00:02:10
Time 00:01:50 | Step 974997 / 1001000 | TPS 219.591 | ETA 00:01:58
Time 00:02:00 | Step 977193 / 1001000 | TPS 219.454 | ETA 00:01:48
Time 00:02:10 | Step 979386 / 1001000 | TPS 219.144 | ETA 00:01:38
Time 00:02:20 | Step 981554 / 1001000 | TPS 216.794 | ETA 00:01:29
Time 00:02:30 | Step 983709 / 1001000 | TPS 215.338 | ETA 00:01:20
Time 00:02:40 | Step 985868 / 1001000 | TPS 215.885 | ETA 00:01:10
Time 00:02:50 | Step 988028 / 1001000 | TPS 215.837 | ETA 00:01:00
Time 00:03:00 | Step 990172 / 1001000 | TPS 214.386 | ETA 00:00:50
Time 00:03:10 | Step 992359 / 1001000 | TPS 218.633 | ETA 00:00:39
Time 00:03:20 | Step 994497 / 1001000 | TPS 213.616 | ETA 00:00:30
Time 00:03:30 | Step 996688 / 1001000 | TPS 219.095 | ETA 00:00:19
Time 00:03:40 | Step 998880 / 1001000 | TPS 219.085 | ETA 00:00:09
Time 00:03:50 | Step 1001000 / 1001000 | TPS 213.723 | ETA 00:00:00
Average TPS: 217.375
---------
-- Neighborlist stats:
21496 normal updates / 168 forced updates / 0 dangerous updates
n_neigh_min: 50 / n_neigh_max: 188 / n_neigh_avg: 155.781
shortest rebuild period: 1
** run complete **
[33mWARNING: Skipping user bind, non existent bind point (file) in container: '/usr/bin/nvidia-smi'
[0m[33mWARNING: Skipping user bind, non existent bind point (file) in container: '/usr/bin/nvidia-debugdump'
[0m[33mWARNING: Skipping user bind, non existent bind point (file) in container: '/usr/bin/nvidia-persistenced'
[0m[33mWARNING: Skipping user bind, non existent bind point (file) in container: '/usr/bin/nvidia-cuda-mps-control'
[0m[33mWARNING: Skipping user bind, non existent bind point (file) in container: '/usr/bin/nvidia-cuda-mps-server'
[0mHOOMD-blue 2.3.5 CUDA (8.0) DOUBLE HPMC_MIXED TBB SSE SSE2 
Compiled: 10/08/18
Copyright 2009-2018 The Regents of the University of Michigan.
-----
You are using HOOMD-blue. Please cite the following:
* J A Anderson, C D Lorenz, and A Travesset. "General purpose molecular dynamics
  simulations fully implemented on graphics processing units", Journal of
  Computational Physics 227 (2008) 5342--5359
* J Glaser, T D Nguyen, J A Anderson, P Liu, F Spiga, J A Millan, D C Morse, and
  S C Glotzer. "Strong scaling of general-purpose molecular dynamics simulations
  on GPUs", Computer Physics Communications 192 (2015) 97--107
-----
notice(2): This system is not compute exclusive, using local rank to select GPUs
HOOMD-blue is running on the following GPU(s):
 [0]            Tesla K20m  13 SM_3.5 @ 0.706 GHz, 4743 MiB DRAM
Ramp_6_8.py:044  |  system = hoomd.init.read_gsd(ramp_file, frame = -1);
notice(2): Group "all" created containing 1004 particles
Ramp_6_8.py:048  |  rigid = hoomd.md.constrain.rigid();
notice(2): constrain.rigid(): Creating 1000 rigid bodies (adding 8000 particles)
Ramp_6_8.py:060  |  nl = hoomd.md.nlist.tree();
-----
You are using tree neighbor lists. Please cite the following:
* M P Howard, J A Anderson, A Nikoubashman, S C Glotzer, and A Z
  Panagiotopoulos. "Efficient neighbor list calculation for molecular simulation
  of colloidal systems using graphics processing units", Computer Physics
  Communications 203 (2016) 45--52
-----
Ramp_6_8.py:062  |  lj = hoomd.md.pair.lj(r_cut = 3.5, nlist = nl)
Ramp_6_8.py:063  |  lj.set_params(mode = 'shift')
Ramp_6_8.py:067  |  lj.pair_coeff.set('NP','NP', epsilon = 1.0, sigma = 5.0);
Ramp_6_8.py:068  |  lj.pair_coeff.set('M' ,'M' , epsilon = 1.0, sigma = 1.0);
Ramp_6_8.py:069  |  lj.pair_coeff.set('A' ,'A' , epsilon = 1.0, sigma = 1.0);
Ramp_6_8.py:070  |  lj.pair_coeff.set('M' ,'A' , epsilon = 1.0, sigma = 1.0);
Ramp_6_8.py:071  |  lj.pair_coeff.set('NP','M' , epsilon = 1.0, sigma = 3.0);
Ramp_6_8.py:072  |  lj.pair_coeff.set('NP','A' , epsilon = 1.0, sigma = 3.0);
Ramp_6_8.py:076  |  hoomd.md.integrate.mode_standard(dt = 0.005);
Ramp_6_8.py:080  |  nanoparticles = hoomd.group.type(name = 'Nano_Particles', type = 'NP');
notice(2): Group "Nano_Particles" created containing 4 particles
Ramp_6_8.py:081  |  mesogens = hoomd.group.rigid_center();
notice(2): Group "rigid_center" created containing 1000 particles
notice(2): Group "NP_Mes" created containing 1004 particles
Ramp_6_8.py:088  |  npt = hoomd.md.integrate.npt(group = groupNP_mes, kT = temp, tau = 5.0, tauP = 5.0, P = p_max);
Ramp_6_8.py:097  |  log = hoomd.analyze.log(filename = log_file,
                         quantities = ['num_particles',
                                     'ndof',
                                     'translational_ndof',
                                     'rotational_ndof',
                                     'potential_energy',
                                     'kinetic_energy',
                                     'translational_kinetic_energy',
                                     'rotational_kinetic_energy',
                                     'temperature',
                                     'pressure',
                                      'volume'],
                         period = 1e3,
                         overwrite = True);
Ramp_6_8.py:113  |                 group = hoomd.group.all(),
Ramp_6_8.py:111  |  gsd = hoomd.dump.gsd(gsd_file,
               period = 1e3,
               group = hoomd.group.all(),
               overwrite = True); 
Ramp_6_8.py:115  |  meso_gsd = hoomd.dump.gsd(meso_gsd_file,
               period = 1e3,
               group = groupNP_mes,
               overwrite = True); 
Ramp_6_8.py:126  |  hoomd.run(steps_ramp)
notice(2): -- Neighborlist exclusion statistics -- :
notice(2): Particles with 0 exclusions             : 9004
notice(2): Neighbors included by diameter          : no
notice(2): Neighbors excluded when in the same body: yes
** starting run **
Time 00:00:10 | Step 1001945 / 1050000 | TPS 194.446 | ETA 00:04:07
Time 00:00:20 | Step 1004162 / 1050000 | TPS 221.596 | ETA 00:03:26
Time 00:00:30 | Step 1006396 / 1050000 | TPS 223.231 | ETA 00:03:15
Time 00:00:40 | Step 1008575 / 1050000 | TPS 217.849 | ETA 00:03:10
Time 00:00:50 | Step 1010757 / 1050000 | TPS 218.186 | ETA 00:02:59
Time 00:01:00 | Step 1012975 / 1050000 | TPS 221.767 | ETA 00:02:46
Time 00:01:10 | Step 1015197 / 1050000 | TPS 222.08 | ETA 00:02:36
Time 00:01:20 | Step 1017381 / 1050000 | TPS 218.387 | ETA 00:02:29
Time 00:01:30 | Step 1019620 / 1050000 | TPS 223.728 | ETA 00:02:15
Time 00:01:40 | Step 1021871 / 1050000 | TPS 225.097 | ETA 00:02:04
Time 00:01:50 | Step 1024106 / 1050000 | TPS 223.485 | ETA 00:01:55
Time 00:02:00 | Step 1026267 / 1050000 | TPS 216.085 | ETA 00:01:49
Time 00:02:10 | Step 1028488 / 1050000 | TPS 221.91 | ETA 00:01:36
Time 00:02:20 | Step 1030711 / 1050000 | TPS 222.197 | ETA 00:01:26
Time 00:02:30 | Step 1032941 / 1050000 | TPS 222.837 | ETA 00:01:16
Time 00:02:40 | Step 1035129 / 1050000 | TPS 218.695 | ETA 00:01:07
Time 00:02:50 | Step 1037296 / 1050000 | TPS 216.586 | ETA 00:00:58
Time 00:03:00 | Step 1039494 / 1050000 | TPS 219.661 | ETA 00:00:47
Time 00:03:10 | Step 1041702 / 1050000 | TPS 220.79 | ETA 00:00:37
Time 00:03:20 | Step 1043958 / 1050000 | TPS 225.534 | ETA 00:00:26
Time 00:03:30 | Step 1046137 / 1050000 | TPS 217.709 | ETA 00:00:17
Time 00:03:40 | Step 1048321 / 1050000 | TPS 218.391 | ETA 00:00:07
Time 00:03:47 | Step 1050000 / 1050000 | TPS 220.826 | ETA 00:00:00
Average TPS: 219.599
---------
-- Neighborlist stats:
22191 normal updates / 167 forced updates / 0 dangerous updates
n_neigh_min: 44 / n_neigh_max: 185 / n_neigh_avg: 152.517
shortest rebuild period: 1
** run complete **
[33mWARNING: Skipping user bind, non existent bind point (file) in container: '/usr/bin/nvidia-smi'
[0m[33mWARNING: Skipping user bind, non existent bind point (file) in container: '/usr/bin/nvidia-debugdump'
[0m[33mWARNING: Skipping user bind, non existent bind point (file) in container: '/usr/bin/nvidia-persistenced'
[0m[33mWARNING: Skipping user bind, non existent bind point (file) in container: '/usr/bin/nvidia-cuda-mps-control'
[0m[33mWARNING: Skipping user bind, non existent bind point (file) in container: '/usr/bin/nvidia-cuda-mps-server'
[0mHOOMD-blue 2.3.5 CUDA (8.0) DOUBLE HPMC_MIXED TBB SSE SSE2 
Compiled: 10/08/18
Copyright 2009-2018 The Regents of the University of Michigan.
-----
You are using HOOMD-blue. Please cite the following:
* J A Anderson, C D Lorenz, and A Travesset. "General purpose molecular dynamics
  simulations fully implemented on graphics processing units", Journal of
  Computational Physics 227 (2008) 5342--5359
* J Glaser, T D Nguyen, J A Anderson, P Liu, F Spiga, J A Millan, D C Morse, and
  S C Glotzer. "Strong scaling of general-purpose molecular dynamics simulations
  on GPUs", Computer Physics Communications 192 (2015) 97--107
-----
notice(2): This system is not compute exclusive, using local rank to select GPUs
HOOMD-blue is running on the following GPU(s):
 [0]            Tesla K20m  13 SM_3.5 @ 0.706 GHz, 4743 MiB DRAM
Ramp_7_0.py:044  |  system = hoomd.init.read_gsd(ramp_file, frame = -1);
notice(2): Group "all" created containing 1004 particles
Ramp_7_0.py:048  |  rigid = hoomd.md.constrain.rigid();
notice(2): constrain.rigid(): Creating 1000 rigid bodies (adding 8000 particles)
Ramp_7_0.py:060  |  nl = hoomd.md.nlist.tree();
-----
You are using tree neighbor lists. Please cite the following:
* M P Howard, J A Anderson, A Nikoubashman, S C Glotzer, and A Z
  Panagiotopoulos. "Efficient neighbor list calculation for molecular simulation
  of colloidal systems using graphics processing units", Computer Physics
  Communications 203 (2016) 45--52
-----
Ramp_7_0.py:062  |  lj = hoomd.md.pair.lj(r_cut = 3.5, nlist = nl)
Ramp_7_0.py:063  |  lj.set_params(mode = 'shift')
Ramp_7_0.py:067  |  lj.pair_coeff.set('NP','NP', epsilon = 1.0, sigma = 5.0);
Ramp_7_0.py:068  |  lj.pair_coeff.set('M' ,'M' , epsilon = 1.0, sigma = 1.0);
Ramp_7_0.py:069  |  lj.pair_coeff.set('A' ,'A' , epsilon = 1.0, sigma = 1.0);
Ramp_7_0.py:070  |  lj.pair_coeff.set('M' ,'A' , epsilon = 1.0, sigma = 1.0);
Ramp_7_0.py:071  |  lj.pair_coeff.set('NP','M' , epsilon = 1.0, sigma = 3.0);
Ramp_7_0.py:072  |  lj.pair_coeff.set('NP','A' , epsilon = 1.0, sigma = 3.0);
Ramp_7_0.py:076  |  hoomd.md.integrate.mode_standard(dt = 0.005);
Ramp_7_0.py:080  |  nanoparticles = hoomd.group.type(name = 'Nano_Particles', type = 'NP');
notice(2): Group "Nano_Particles" created containing 4 particles
Ramp_7_0.py:081  |  mesogens = hoomd.group.rigid_center();
notice(2): Group "rigid_center" created containing 1000 particles
notice(2): Group "NP_Mes" created containing 1004 particles
Ramp_7_0.py:088  |  npt = hoomd.md.integrate.npt(group = groupNP_mes, kT = temp, tau = 5.0, tauP = 5.0, P = p_max);
Ramp_7_0.py:097  |  log = hoomd.analyze.log(filename = log_file,
                         quantities = ['num_particles',
                                     'ndof',
                                     'translational_ndof',
                                     'rotational_ndof',
                                     'potential_energy',
                                     'kinetic_energy',
                                     'translational_kinetic_energy',
                                     'rotational_kinetic_energy',
                                     'temperature',
                                     'pressure',
                                      'volume'],
                         period = 1e3,
                         overwrite = True);
Ramp_7_0.py:113  |                 group = hoomd.group.all(),
Ramp_7_0.py:111  |  gsd = hoomd.dump.gsd(gsd_file,
               period = 1e3,
               group = hoomd.group.all(),
               overwrite = True); 
Ramp_7_0.py:115  |  meso_gsd = hoomd.dump.gsd(meso_gsd_file,
               period = 1e3,
               group = groupNP_mes,
               overwrite = True); 
Ramp_7_0.py:126  |  hoomd.run(steps_ramp)
notice(2): -- Neighborlist exclusion statistics -- :
notice(2): Particles with 0 exclusions             : 9004
notice(2): Neighbors included by diameter          : no
notice(2): Neighbors excluded when in the same body: yes
** starting run **
Time 00:00:10 | Step 1050958 / 1099000 | TPS 195.715 | ETA 00:04:05
Time 00:00:20 | Step 1053093 / 1099000 | TPS 213.495 | ETA 00:03:35
Time 00:00:30 | Step 1055291 / 1099000 | TPS 219.649 | ETA 00:03:18
Time 00:00:40 | Step 1057474 / 1099000 | TPS 218.245 | ETA 00:03:10
Time 00:00:50 | Step 1059655 / 1099000 | TPS 217.997 | ETA 00:03:00
Time 00:01:00 | Step 1061802 / 1099000 | TPS 214.599 | ETA 00:02:53
Time 00:01:10 | Step 1063987 / 1099000 | TPS 218.348 | ETA 00:02:40
Time 00:01:20 | Step 1066223 / 1099000 | TPS 223.596 | ETA 00:02:26
Time 00:01:30 | Step 1068395 / 1099000 | TPS 217.005 | ETA 00:02:21
Time 00:01:40 | Step 1070529 / 1099000 | TPS 213.302 | ETA 00:02:13
Time 00:01:50 | Step 1072710 / 1099000 | TPS 218.086 | ETA 00:02:00
Time 00:02:00 | Step 1074876 / 1099000 | TPS 216.546 | ETA 00:01:51
Time 00:02:10 | Step 1077050 / 1099000 | TPS 217.272 | ETA 00:01:41
Time 00:02:20 | Step 1079206 / 1099000 | TPS 215.411 | ETA 00:01:31
Time 00:02:30 | Step 1081416 / 1099000 | TPS 220.801 | ETA 00:01:19
Time 00:02:40 | Step 1083618 / 1099000 | TPS 220.185 | ETA 00:01:09
Time 00:02:50 | Step 1085794 / 1099000 | TPS 217.422 | ETA 00:01:00
Time 00:03:00 | Step 1087978 / 1099000 | TPS 218.309 | ETA 00:00:50
Time 00:03:10 | Step 1090144 / 1099000 | TPS 216.572 | ETA 00:00:40
Time 00:03:20 | Step 1092306 / 1099000 | TPS 216.08 | ETA 00:00:30
Time 00:03:30 | Step 1094478 / 1099000 | TPS 217.11 | ETA 00:00:20
Time 00:03:40 | Step 1096675 / 1099000 | TPS 219.518 | ETA 00:00:10
Time 00:03:50 | Step 1098829 / 1099000 | TPS 215.217 | ETA 00:00:00
Time 00:03:51 | Step 1099000 / 1099000 | TPS 227.752 | ETA 00:00:00
Average TPS: 216.579
---------
-- Neighborlist stats:
22897 normal updates / 168 forced updates / 0 dangerous updates
n_neigh_min: 39 / n_neigh_max: 182 / n_neigh_avg: 148.896
shortest rebuild period: 1
** run complete **
