[33mWARNING: Skipping user bind, non existent bind point (file) in container: '/usr/bin/nvidia-smi'
[0m[33mWARNING: Skipping user bind, non existent bind point (file) in container: '/usr/bin/nvidia-debugdump'
[0m[33mWARNING: Skipping user bind, non existent bind point (file) in container: '/usr/bin/nvidia-persistenced'
[0m[33mWARNING: Skipping user bind, non existent bind point (file) in container: '/usr/bin/nvidia-cuda-mps-control'
[0m[33mWARNING: Skipping user bind, non existent bind point (file) in container: '/usr/bin/nvidia-cuda-mps-server'
[0mHOOMD-blue 2.3.5 CUDA (8.0) DOUBLE HPMC_MIXED TBB SSE SSE2 
Compiled: 10/08/18
Copyright 2009-2018 The Regents of the University of Michigan.
-----
You are using HOOMD-blue. Please cite the following:
* J A Anderson, C D Lorenz, and A Travesset. "General purpose molecular dynamics
  simulations fully implemented on graphics processing units", Journal of
  Computational Physics 227 (2008) 5342--5359
* J Glaser, T D Nguyen, J A Anderson, P Liu, F Spiga, J A Millan, D C Morse, and
  S C Glotzer. "Strong scaling of general-purpose molecular dynamics simulations
  on GPUs", Computer Physics Communications 192 (2015) 97--107
-----
notice(2): This system is not compute exclusive, using local rank to select GPUs
HOOMD-blue is running on the following GPU(s):
 [0]            Tesla K20m  13 SM_3.5 @ 0.706 GHz, 4743 MiB DRAM
Ramp_6_4.py:044  |  system = hoomd.init.read_gsd(ramp_file, frame = -1);
notice(2): Group "all" created containing 1004 particles
Ramp_6_4.py:048  |  rigid = hoomd.md.constrain.rigid();
notice(2): constrain.rigid(): Creating 1000 rigid bodies (adding 8000 particles)
Ramp_6_4.py:060  |  nl = hoomd.md.nlist.tree();
-----
You are using tree neighbor lists. Please cite the following:
* M P Howard, J A Anderson, A Nikoubashman, S C Glotzer, and A Z
  Panagiotopoulos. "Efficient neighbor list calculation for molecular simulation
  of colloidal systems using graphics processing units", Computer Physics
  Communications 203 (2016) 45--52
-----
Ramp_6_4.py:062  |  lj = hoomd.md.pair.lj(r_cut = 3.5, nlist = nl)
Ramp_6_4.py:063  |  lj.set_params(mode = 'shift')
Ramp_6_4.py:067  |  lj.pair_coeff.set('NP','NP', epsilon = 1.0, sigma = 5.0);
Ramp_6_4.py:068  |  lj.pair_coeff.set('M' ,'M' , epsilon = 1.0, sigma = 1.0);
Ramp_6_4.py:069  |  lj.pair_coeff.set('A' ,'A' , epsilon = 1.0, sigma = 1.0);
Ramp_6_4.py:070  |  lj.pair_coeff.set('M' ,'A' , epsilon = 1.0, sigma = 1.0);
Ramp_6_4.py:071  |  lj.pair_coeff.set('NP','M' , epsilon = 1.0, sigma = 3.0);
Ramp_6_4.py:072  |  lj.pair_coeff.set('NP','A' , epsilon = 1.0, sigma = 3.0);
Ramp_6_4.py:076  |  hoomd.md.integrate.mode_standard(dt = 0.005);
Ramp_6_4.py:080  |  nanoparticles = hoomd.group.type(name = 'Nano_Particles', type = 'NP');
notice(2): Group "Nano_Particles" created containing 4 particles
Ramp_6_4.py:081  |  mesogens = hoomd.group.rigid_center();
notice(2): Group "rigid_center" created containing 1000 particles
notice(2): Group "NP_Mes" created containing 1004 particles
Ramp_6_4.py:088  |  npt = hoomd.md.integrate.npt(group = groupNP_mes, kT = temp, tau = 4.0, tauP = 4.0, P = p_max);
Ramp_6_4.py:097  |  log = hoomd.analyze.log(filename = log_file,
                         quantities = ['num_particles',
                                     'ndof',
                                     'translational_ndof',
                                     'rotational_ndof',
                                     'potential_energy',
                                     'kinetic_energy',
                                     'translational_kinetic_energy',
                                     'rotational_kinetic_energy',
                                     'temperature',
                                     'pressure',
                                      'volume'],
                         period = 1e3,
                         overwrite = True);
Ramp_6_4.py:113  |                 group = hoomd.group.all(),
Ramp_6_4.py:111  |  gsd = hoomd.dump.gsd(gsd_file,
               period = 1e3,
               group = hoomd.group.all(),
               overwrite = True); 
Ramp_6_4.py:115  |  meso_gsd = hoomd.dump.gsd(meso_gsd_file,
               period = 1e3,
               group = groupNP_mes,
               overwrite = True); 
Ramp_6_4.py:126  |  hoomd.run(steps_ramp)
notice(2): -- Neighborlist exclusion statistics -- :
notice(2): Particles with 0 exclusions             : 9004
notice(2): Neighbors included by diameter          : no
notice(2): Neighbors excluded when in the same body: yes
** starting run **
Time 00:00:10 | Step 904109 / 952000 | TPS 210.808 | ETA 00:03:47
Time 00:00:20 | Step 906387 / 952000 | TPS 227.797 | ETA 00:03:20
Time 00:00:30 | Step 908778 / 952000 | TPS 238.954 | ETA 00:03:00
Time 00:00:40 | Step 911064 / 952000 | TPS 228.545 | ETA 00:02:59
Time 00:00:50 | Step 913369 / 952000 | TPS 230.35 | ETA 00:02:47
Time 00:01:00 | Step 915733 / 952000 | TPS 236.242 | ETA 00:02:33
Time 00:01:10 | Step 918089 / 952000 | TPS 235.433 | ETA 00:02:24
Time 00:01:20 | Step 920397 / 952000 | TPS 230.703 | ETA 00:02:16
Time 00:01:30 | Step 922703 / 952000 | TPS 230.479 | ETA 00:02:07
Time 00:01:40 | Step 925045 / 952000 | TPS 234.143 | ETA 00:01:55
Time 00:01:50 | Step 927359 / 952000 | TPS 231.344 | ETA 00:01:46
Time 00:02:00 | Step 929644 / 952000 | TPS 228.459 | ETA 00:01:37
Time 00:02:10 | Step 931912 / 952000 | TPS 226.776 | ETA 00:01:28
Time 00:02:20 | Step 934213 / 952000 | TPS 230.071 | ETA 00:01:17
Time 00:02:30 | Step 936515 / 952000 | TPS 230.045 | ETA 00:01:07
Time 00:02:40 | Step 938805 / 952000 | TPS 228.788 | ETA 00:00:57
Time 00:02:50 | Step 941093 / 952000 | TPS 228.792 | ETA 00:00:47
Time 00:03:00 | Step 943309 / 952000 | TPS 221.492 | ETA 00:00:39
Time 00:03:10 | Step 945593 / 952000 | TPS 228.37 | ETA 00:00:28
Time 00:03:20 | Step 947782 / 952000 | TPS 218.713 | ETA 00:00:19
Time 00:03:30 | Step 950035 / 952000 | TPS 225.225 | ETA 00:00:08
Time 00:03:38 | Step 952000 / 952000 | TPS 227.262 | ETA 00:00:00
Average TPS: 228.59
---------
-- Neighborlist stats:
20775 normal updates / 168 forced updates / 0 dangerous updates
n_neigh_min: 50 / n_neigh_max: 189 / n_neigh_avg: 160.075
shortest rebuild period: 2
** run complete **
[33mWARNING: Skipping user bind, non existent bind point (file) in container: '/usr/bin/nvidia-smi'
[0m[33mWARNING: Skipping user bind, non existent bind point (file) in container: '/usr/bin/nvidia-debugdump'
[0m[33mWARNING: Skipping user bind, non existent bind point (file) in container: '/usr/bin/nvidia-persistenced'
[0m[33mWARNING: Skipping user bind, non existent bind point (file) in container: '/usr/bin/nvidia-cuda-mps-control'
[0m[33mWARNING: Skipping user bind, non existent bind point (file) in container: '/usr/bin/nvidia-cuda-mps-server'
[0mHOOMD-blue 2.3.5 CUDA (8.0) DOUBLE HPMC_MIXED TBB SSE SSE2 
Compiled: 10/08/18
Copyright 2009-2018 The Regents of the University of Michigan.
-----
You are using HOOMD-blue. Please cite the following:
* J A Anderson, C D Lorenz, and A Travesset. "General purpose molecular dynamics
  simulations fully implemented on graphics processing units", Journal of
  Computational Physics 227 (2008) 5342--5359
* J Glaser, T D Nguyen, J A Anderson, P Liu, F Spiga, J A Millan, D C Morse, and
  S C Glotzer. "Strong scaling of general-purpose molecular dynamics simulations
  on GPUs", Computer Physics Communications 192 (2015) 97--107
-----
notice(2): This system is not compute exclusive, using local rank to select GPUs
HOOMD-blue is running on the following GPU(s):
 [0]            Tesla K20m  13 SM_3.5 @ 0.706 GHz, 4743 MiB DRAM
Ramp_6_6.py:044  |  system = hoomd.init.read_gsd(ramp_file, frame = -1);
notice(2): Group "all" created containing 1004 particles
Ramp_6_6.py:048  |  rigid = hoomd.md.constrain.rigid();
notice(2): constrain.rigid(): Creating 1000 rigid bodies (adding 8000 particles)
Ramp_6_6.py:060  |  nl = hoomd.md.nlist.tree();
-----
You are using tree neighbor lists. Please cite the following:
* M P Howard, J A Anderson, A Nikoubashman, S C Glotzer, and A Z
  Panagiotopoulos. "Efficient neighbor list calculation for molecular simulation
  of colloidal systems using graphics processing units", Computer Physics
  Communications 203 (2016) 45--52
-----
Ramp_6_6.py:062  |  lj = hoomd.md.pair.lj(r_cut = 3.5, nlist = nl)
Ramp_6_6.py:063  |  lj.set_params(mode = 'shift')
Ramp_6_6.py:067  |  lj.pair_coeff.set('NP','NP', epsilon = 1.0, sigma = 5.0);
Ramp_6_6.py:068  |  lj.pair_coeff.set('M' ,'M' , epsilon = 1.0, sigma = 1.0);
Ramp_6_6.py:069  |  lj.pair_coeff.set('A' ,'A' , epsilon = 1.0, sigma = 1.0);
Ramp_6_6.py:070  |  lj.pair_coeff.set('M' ,'A' , epsilon = 1.0, sigma = 1.0);
Ramp_6_6.py:071  |  lj.pair_coeff.set('NP','M' , epsilon = 1.0, sigma = 3.0);
Ramp_6_6.py:072  |  lj.pair_coeff.set('NP','A' , epsilon = 1.0, sigma = 3.0);
Ramp_6_6.py:076  |  hoomd.md.integrate.mode_standard(dt = 0.005);
Ramp_6_6.py:080  |  nanoparticles = hoomd.group.type(name = 'Nano_Particles', type = 'NP');
notice(2): Group "Nano_Particles" created containing 4 particles
Ramp_6_6.py:081  |  mesogens = hoomd.group.rigid_center();
notice(2): Group "rigid_center" created containing 1000 particles
notice(2): Group "NP_Mes" created containing 1004 particles
Ramp_6_6.py:088  |  npt = hoomd.md.integrate.npt(group = groupNP_mes, kT = temp, tau = 4.0, tauP = 4.0, P = p_max);
Ramp_6_6.py:097  |  log = hoomd.analyze.log(filename = log_file,
                         quantities = ['num_particles',
                                     'ndof',
                                     'translational_ndof',
                                     'rotational_ndof',
                                     'potential_energy',
                                     'kinetic_energy',
                                     'translational_kinetic_energy',
                                     'rotational_kinetic_energy',
                                     'temperature',
                                     'pressure',
                                      'volume'],
                         period = 1e3,
                         overwrite = True);
Ramp_6_6.py:113  |                 group = hoomd.group.all(),
Ramp_6_6.py:111  |  gsd = hoomd.dump.gsd(gsd_file,
               period = 1e3,
               group = hoomd.group.all(),
               overwrite = True); 
Ramp_6_6.py:115  |  meso_gsd = hoomd.dump.gsd(meso_gsd_file,
               period = 1e3,
               group = groupNP_mes,
               overwrite = True); 
Ramp_6_6.py:126  |  hoomd.run(steps_ramp)
notice(2): -- Neighborlist exclusion statistics -- :
notice(2): Particles with 0 exclusions             : 9004
notice(2): Neighbors included by diameter          : no
notice(2): Neighbors excluded when in the same body: yes
** starting run **
Time 00:00:10 | Step 952989 / 1001000 | TPS 198.857 | ETA 00:04:01
Time 00:00:20 | Step 955200 / 1001000 | TPS 221.047 | ETA 00:03:27
Time 00:00:30 | Step 957438 / 1001000 | TPS 223.662 | ETA 00:03:14
Time 00:00:40 | Step 959653 / 1001000 | TPS 221.421 | ETA 00:03:06
Time 00:00:50 | Step 961842 / 1001000 | TPS 218.865 | ETA 00:02:58
Time 00:01:00 | Step 964042 / 1001000 | TPS 219.826 | ETA 00:02:48
Time 00:01:10 | Step 966249 / 1001000 | TPS 220.587 | ETA 00:02:37
Time 00:01:20 | Step 970801 / 1001000 | TPS 448.295 | ETA 00:01:07
Time 00:01:30 | Step 976845 / 1001000 | TPS 604.374 | ETA 00:00:39
Time 00:01:40 | Step 982885 / 1001000 | TPS 603.976 | ETA 00:00:29
Time 00:01:50 | Step 988938 / 1001000 | TPS 605.277 | ETA 00:00:19
Time 00:02:00 | Step 994989 / 1001000 | TPS 605.077 | ETA 00:00:09
Time 00:02:10 | Step 1001000 / 1001000 | TPS 602.093 | ETA 00:00:00
Average TPS: 384.119
---------
-- Neighborlist stats:
6843 normal updates / 168 forced updates / 0 dangerous updates
n_neigh_min: 0 / n_neigh_max: 0 / n_neigh_avg: 0
shortest rebuild period: 1
** run complete **
[33mWARNING: Skipping user bind, non existent bind point (file) in container: '/usr/bin/nvidia-smi'
[0m[33mWARNING: Skipping user bind, non existent bind point (file) in container: '/usr/bin/nvidia-debugdump'
[0m[33mWARNING: Skipping user bind, non existent bind point (file) in container: '/usr/bin/nvidia-persistenced'
[0m[33mWARNING: Skipping user bind, non existent bind point (file) in container: '/usr/bin/nvidia-cuda-mps-control'
[0m[33mWARNING: Skipping user bind, non existent bind point (file) in container: '/usr/bin/nvidia-cuda-mps-server'
[0mHOOMD-blue 2.3.5 CUDA (8.0) DOUBLE HPMC_MIXED TBB SSE SSE2 
Compiled: 10/08/18
Copyright 2009-2018 The Regents of the University of Michigan.
-----
You are using HOOMD-blue. Please cite the following:
* J A Anderson, C D Lorenz, and A Travesset. "General purpose molecular dynamics
  simulations fully implemented on graphics processing units", Journal of
  Computational Physics 227 (2008) 5342--5359
* J Glaser, T D Nguyen, J A Anderson, P Liu, F Spiga, J A Millan, D C Morse, and
  S C Glotzer. "Strong scaling of general-purpose molecular dynamics simulations
  on GPUs", Computer Physics Communications 192 (2015) 97--107
-----
notice(2): This system is not compute exclusive, using local rank to select GPUs
HOOMD-blue is running on the following GPU(s):
 [0]            Tesla K20m  13 SM_3.5 @ 0.706 GHz, 4743 MiB DRAM
Ramp_6_8.py:044  |  system = hoomd.init.read_gsd(ramp_file, frame = -1);
notice(2): Group "all" created containing 1004 particles
Ramp_6_8.py:048  |  rigid = hoomd.md.constrain.rigid();
notice(2): constrain.rigid(): Creating 1000 rigid bodies (adding 8000 particles)
Ramp_6_8.py:060  |  nl = hoomd.md.nlist.tree();
-----
You are using tree neighbor lists. Please cite the following:
* M P Howard, J A Anderson, A Nikoubashman, S C Glotzer, and A Z
  Panagiotopoulos. "Efficient neighbor list calculation for molecular simulation
  of colloidal systems using graphics processing units", Computer Physics
  Communications 203 (2016) 45--52
-----
Ramp_6_8.py:062  |  lj = hoomd.md.pair.lj(r_cut = 3.5, nlist = nl)
Ramp_6_8.py:063  |  lj.set_params(mode = 'shift')
Ramp_6_8.py:067  |  lj.pair_coeff.set('NP','NP', epsilon = 1.0, sigma = 5.0);
Ramp_6_8.py:068  |  lj.pair_coeff.set('M' ,'M' , epsilon = 1.0, sigma = 1.0);
Ramp_6_8.py:069  |  lj.pair_coeff.set('A' ,'A' , epsilon = 1.0, sigma = 1.0);
Ramp_6_8.py:070  |  lj.pair_coeff.set('M' ,'A' , epsilon = 1.0, sigma = 1.0);
Ramp_6_8.py:071  |  lj.pair_coeff.set('NP','M' , epsilon = 1.0, sigma = 3.0);
Ramp_6_8.py:072  |  lj.pair_coeff.set('NP','A' , epsilon = 1.0, sigma = 3.0);
Ramp_6_8.py:076  |  hoomd.md.integrate.mode_standard(dt = 0.005);
Ramp_6_8.py:080  |  nanoparticles = hoomd.group.type(name = 'Nano_Particles', type = 'NP');
notice(2): Group "Nano_Particles" created containing 4 particles
Ramp_6_8.py:081  |  mesogens = hoomd.group.rigid_center();
notice(2): Group "rigid_center" created containing 1000 particles
notice(2): Group "NP_Mes" created containing 1004 particles
Ramp_6_8.py:088  |  npt = hoomd.md.integrate.npt(group = groupNP_mes, kT = temp, tau = 4.0, tauP = 4.0, P = p_max);
Ramp_6_8.py:097  |  log = hoomd.analyze.log(filename = log_file,
                         quantities = ['num_particles',
                                     'ndof',
                                     'translational_ndof',
                                     'rotational_ndof',
                                     'potential_energy',
                                     'kinetic_energy',
                                     'translational_kinetic_energy',
                                     'rotational_kinetic_energy',
                                     'temperature',
                                     'pressure',
                                      'volume'],
                         period = 1e3,
                         overwrite = True);
Ramp_6_8.py:113  |                 group = hoomd.group.all(),
Ramp_6_8.py:111  |  gsd = hoomd.dump.gsd(gsd_file,
               period = 1e3,
               group = hoomd.group.all(),
               overwrite = True); 
Ramp_6_8.py:115  |  meso_gsd = hoomd.dump.gsd(meso_gsd_file,
               period = 1e3,
               group = groupNP_mes,
               overwrite = True); 
Ramp_6_8.py:126  |  hoomd.run(steps_ramp)
notice(2): -- Neighborlist exclusion statistics -- :
notice(2): Particles with 0 exclusions             : 9004
notice(2): Neighbors included by diameter          : no
notice(2): Neighbors excluded when in the same body: yes
** starting run **
Time 00:00:10 | Step 1005054 / 1050000 | TPS 505.383 | ETA 00:01:28
Time 00:00:20 | Step 1011901 / 1050000 | TPS 670.761 | ETA 00:00:56
Time 00:00:30 | Step 1017601 / 1050000 | TPS 565.051 | ETA 00:00:57
Time 00:00:40 | Step 1022701 / 1050000 | TPS 508.996 | ETA 00:00:53
Time 00:00:50 | Step 1026601 / 1050000 | TPS 380.725 | ETA 00:01:01
Time 00:01:00 | Step 1030501 / 1050000 | TPS 380.812 | ETA 00:00:51
Time 00:01:11 | Step 1036501 / 1050000 | TPS 589.857 | ETA 00:00:22
Time 00:01:21 | Step 1042801 / 1050000 | TPS 616.417 | ETA 00:00:11
Time 00:01:31 | Step 1049114 / 1050000 | TPS 631.278 | ETA 00:00:01
Time 00:01:32 | Step 1050000 / 1050000 | TPS 897.222 | ETA 00:00:00
Average TPS: 542.414
---------
-- Neighborlist stats:
0 normal updates / 167 forced updates / 0 dangerous updates
n_neigh_min: 0 / n_neigh_max: 0 / n_neigh_avg: 0
shortest rebuild period: 100
** run complete **
[33mWARNING: Skipping user bind, non existent bind point (file) in container: '/usr/bin/nvidia-smi'
[0m[33mWARNING: Skipping user bind, non existent bind point (file) in container: '/usr/bin/nvidia-debugdump'
[0m[33mWARNING: Skipping user bind, non existent bind point (file) in container: '/usr/bin/nvidia-persistenced'
[0m[33mWARNING: Skipping user bind, non existent bind point (file) in container: '/usr/bin/nvidia-cuda-mps-control'
[0m[33mWARNING: Skipping user bind, non existent bind point (file) in container: '/usr/bin/nvidia-cuda-mps-server'
[0mHOOMD-blue 2.3.5 CUDA (8.0) DOUBLE HPMC_MIXED TBB SSE SSE2 
Compiled: 10/08/18
Copyright 2009-2018 The Regents of the University of Michigan.
-----
You are using HOOMD-blue. Please cite the following:
* J A Anderson, C D Lorenz, and A Travesset. "General purpose molecular dynamics
  simulations fully implemented on graphics processing units", Journal of
  Computational Physics 227 (2008) 5342--5359
* J Glaser, T D Nguyen, J A Anderson, P Liu, F Spiga, J A Millan, D C Morse, and
  S C Glotzer. "Strong scaling of general-purpose molecular dynamics simulations
  on GPUs", Computer Physics Communications 192 (2015) 97--107
-----
notice(2): This system is not compute exclusive, using local rank to select GPUs
HOOMD-blue is running on the following GPU(s):
 [0]            Tesla K20m  13 SM_3.5 @ 0.706 GHz, 4743 MiB DRAM
Ramp_7_0.py:044  |  system = hoomd.init.read_gsd(ramp_file, frame = -1);
notice(2): Group "all" created containing 1004 particles
Ramp_7_0.py:048  |  rigid = hoomd.md.constrain.rigid();
notice(2): constrain.rigid(): Creating 1000 rigid bodies (adding 8000 particles)
Ramp_7_0.py:060  |  nl = hoomd.md.nlist.tree();
-----
You are using tree neighbor lists. Please cite the following:
* M P Howard, J A Anderson, A Nikoubashman, S C Glotzer, and A Z
  Panagiotopoulos. "Efficient neighbor list calculation for molecular simulation
  of colloidal systems using graphics processing units", Computer Physics
  Communications 203 (2016) 45--52
-----
Ramp_7_0.py:062  |  lj = hoomd.md.pair.lj(r_cut = 3.5, nlist = nl)
Ramp_7_0.py:063  |  lj.set_params(mode = 'shift')
Ramp_7_0.py:067  |  lj.pair_coeff.set('NP','NP', epsilon = 1.0, sigma = 5.0);
Ramp_7_0.py:068  |  lj.pair_coeff.set('M' ,'M' , epsilon = 1.0, sigma = 1.0);
Ramp_7_0.py:069  |  lj.pair_coeff.set('A' ,'A' , epsilon = 1.0, sigma = 1.0);
Ramp_7_0.py:070  |  lj.pair_coeff.set('M' ,'A' , epsilon = 1.0, sigma = 1.0);
Ramp_7_0.py:071  |  lj.pair_coeff.set('NP','M' , epsilon = 1.0, sigma = 3.0);
Ramp_7_0.py:072  |  lj.pair_coeff.set('NP','A' , epsilon = 1.0, sigma = 3.0);
Ramp_7_0.py:076  |  hoomd.md.integrate.mode_standard(dt = 0.005);
Ramp_7_0.py:080  |  nanoparticles = hoomd.group.type(name = 'Nano_Particles', type = 'NP');
notice(2): Group "Nano_Particles" created containing 4 particles
Ramp_7_0.py:081  |  mesogens = hoomd.group.rigid_center();
notice(2): Group "rigid_center" created containing 1000 particles
notice(2): Group "NP_Mes" created containing 1004 particles
Ramp_7_0.py:088  |  npt = hoomd.md.integrate.npt(group = groupNP_mes, kT = temp, tau = 4.0, tauP = 4.0, P = p_max);
Ramp_7_0.py:097  |  log = hoomd.analyze.log(filename = log_file,
                         quantities = ['num_particles',
                                     'ndof',
                                     'translational_ndof',
                                     'rotational_ndof',
                                     'potential_energy',
                                     'kinetic_energy',
                                     'translational_kinetic_energy',
                                     'rotational_kinetic_energy',
                                     'temperature',
                                     'pressure',
                                      'volume'],
                         period = 1e3,
                         overwrite = True);
Ramp_7_0.py:113  |                 group = hoomd.group.all(),
Ramp_7_0.py:111  |  gsd = hoomd.dump.gsd(gsd_file,
               period = 1e3,
               group = hoomd.group.all(),
               overwrite = True); 
Ramp_7_0.py:115  |  meso_gsd = hoomd.dump.gsd(meso_gsd_file,
               period = 1e3,
               group = groupNP_mes,
               overwrite = True); 
Ramp_7_0.py:126  |  hoomd.run(steps_ramp)
notice(2): -- Neighborlist exclusion statistics -- :
notice(2): Particles with 0 exclusions             : 9004
notice(2): Neighbors included by diameter          : no
notice(2): Neighbors excluded when in the same body: yes
** starting run **
Time 00:00:10 | Step 1054150 / 1099000 | TPS 514.986 | ETA 00:01:27
Time 00:00:20 | Step 1060801 / 1099000 | TPS 657.273 | ETA 00:00:58
Time 00:00:30 | Step 1066501 / 1099000 | TPS 565.489 | ETA 00:00:57
Time 00:00:40 | Step 1071601 / 1099000 | TPS 509.372 | ETA 00:00:53
Time 00:00:50 | Step 1075501 / 1099000 | TPS 380.87 | ETA 00:01:01
Time 00:01:00 | Step 1079401 / 1099000 | TPS 380.933 | ETA 00:00:51
Time 00:01:11 | Step 1085401 / 1099000 | TPS 590.194 | ETA 00:00:23
Time 00:01:21 | Step 1091701 / 1099000 | TPS 616.734 | ETA 00:00:11
Time 00:01:31 | Step 1098031 / 1099000 | TPS 632.982 | ETA 00:00:01
Time 00:01:32 | Step 1099000 / 1099000 | TPS 725.613 | ETA 00:00:00
Average TPS: 541.089
---------
-- Neighborlist stats:
0 normal updates / 168 forced updates / 0 dangerous updates
n_neigh_min: 0 / n_neigh_max: 0 / n_neigh_avg: 0
shortest rebuild period: 100
** run complete **
