[33mWARNING: Skipping user bind, non existent bind point (file) in container: '/usr/bin/nvidia-smi'
[0m[33mWARNING: Skipping user bind, non existent bind point (file) in container: '/usr/bin/nvidia-debugdump'
[0m[33mWARNING: Skipping user bind, non existent bind point (file) in container: '/usr/bin/nvidia-persistenced'
[0m[33mWARNING: Skipping user bind, non existent bind point (file) in container: '/usr/bin/nvidia-cuda-mps-control'
[0m[33mWARNING: Skipping user bind, non existent bind point (file) in container: '/usr/bin/nvidia-cuda-mps-server'
[0mHOOMD-blue 2.3.5 CUDA (8.0) DOUBLE HPMC_MIXED TBB SSE SSE2 
Compiled: 10/08/18
Copyright 2009-2018 The Regents of the University of Michigan.
-----
You are using HOOMD-blue. Please cite the following:
* J A Anderson, C D Lorenz, and A Travesset. "General purpose molecular dynamics
  simulations fully implemented on graphics processing units", Journal of
  Computational Physics 227 (2008) 5342--5359
* J Glaser, T D Nguyen, J A Anderson, P Liu, F Spiga, J A Millan, D C Morse, and
  S C Glotzer. "Strong scaling of general-purpose molecular dynamics simulations
  on GPUs", Computer Physics Communications 192 (2015) 97--107
-----
notice(2): This system is not compute exclusive, using local rank to select GPUs
HOOMD-blue is running on the following GPU(s):
 [0]            Tesla K20m  13 SM_3.5 @ 0.706 GHz, 4743 MiB DRAM
Equilibrium_57.py:046  |  system = hoomd.init.read_gsd(ramp_file,frame = -1)
notice(2): Group "all" created containing 1004 particles
Equilibrium_57.py:050  |  rigid = hoomd.md.constrain.rigid();
notice(2): constrain.rigid(): Creating 1000 rigid bodies (adding 8000 particles)
Equilibrium_57.py:062  |  nl = hoomd.md.nlist.tree()
-----
You are using tree neighbor lists. Please cite the following:
* M P Howard, J A Anderson, A Nikoubashman, S C Glotzer, and A Z
  Panagiotopoulos. "Efficient neighbor list calculation for molecular simulation
  of colloidal systems using graphics processing units", Computer Physics
  Communications 203 (2016) 45--52
-----
Equilibrium_57.py:064  |  lj = hoomd.md.pair.lj(r_cut = 3.5, nlist=nl)
Equilibrium_57.py:065  |  lj.set_params(mode='shift')
Equilibrium_57.py:069  |  lj.pair_coeff.set('NP','NP', epsilon = 1.0, sigma = 5.0);
Equilibrium_57.py:070  |  lj.pair_coeff.set('M' ,'M' , epsilon = 1.0, sigma = 1.0);
Equilibrium_57.py:071  |  lj.pair_coeff.set('A' ,'A' , epsilon = 1.0, sigma = 1.0);
Equilibrium_57.py:072  |  lj.pair_coeff.set('M' ,'A' , epsilon = 1.0, sigma = 1.0);
Equilibrium_57.py:073  |  lj.pair_coeff.set('NP','M' , epsilon = 1.0, sigma = 3.0);
Equilibrium_57.py:074  |  lj.pair_coeff.set('NP','A' , epsilon = 1.0, sigma = 3.0);
Equilibrium_57.py:078  |  hoomd.md.integrate.mode_standard(dt = 0.005);
Equilibrium_57.py:082  |  nanoparticles = hoomd.group.type(name = 'Nano_Particles', type = 'NP');
notice(2): Group "Nano_Particles" created containing 4 particles
Equilibrium_57.py:083  |  mesogens = hoomd.group.rigid_center();
notice(2): Group "rigid_center" created containing 1000 particles
notice(2): Group "NP_Mes" created containing 1004 particles
Equilibrium_57.py:088  |  npt = hoomd.md.integrate.npt(group = groupNP_mes, kT = temp, tau = 10.0, tauP = 10.0, P = pressure);
Equilibrium_57.py:095  |  log = hoomd.analyze.log(filename = log_file,
                         quantities = ['num_particles',
                                     'ndof',
                                     'translational_ndof',
                                     'rotational_ndof',
                                     'potential_energy',
                                     'kinetic_energy',
                                     'translational_kinetic_energy',
                                     'rotational_kinetic_energy',
                                     'temperature',
                                     'pressure',
                                      'volume'],
                         period = 1e3,
                         overwrite = True);
Equilibrium_57.py:111  |                 group = hoomd.group.all(),
Equilibrium_57.py:109  |  gsd = hoomd.dump.gsd(gsd_file,
               period = 1e3,
               group = hoomd.group.all(),
               overwrite=True); 
Equilibrium_57.py:113  |  meso_gsd = hoomd.dump.gsd(meso_gsd_file,
               period = 1e3,
               group = mesogens,
               overwrite=True); 
Equilibrium_57.py:124  |  hoomd.run(steps)
notice(2): -- Neighborlist exclusion statistics -- :
notice(2): Particles with 0 exclusions             : 9004
notice(2): Neighbors included by diameter          : no
notice(2): Neighbors excluded when in the same body: yes
** starting run **
Time 00:00:10 | Step 610340 / 708000 | TPS 233.815 | ETA 00:06:57
Time 00:00:20 | Step 612900 / 708000 | TPS 255.78 | ETA 00:06:11
Time 00:00:30 | Step 615502 / 708000 | TPS 260.03 | ETA 00:05:55
Time 00:00:40 | Step 618126 / 708000 | TPS 262.271 | ETA 00:05:42
Time 00:00:50 | Step 620747 / 708000 | TPS 261.975 | ETA 00:05:33
Time 00:01:00 | Step 623413 / 708000 | TPS 266.506 | ETA 00:05:17
Time 00:01:10 | Step 626081 / 708000 | TPS 266.673 | ETA 00:05:07
Time 00:01:20 | Step 628694 / 708000 | TPS 261.283 | ETA 00:05:03
Time 00:01:30 | Step 631296 / 708000 | TPS 260.09 | ETA 00:04:54
Time 00:01:40 | Step 633944 / 708000 | TPS 264.785 | ETA 00:04:39
Time 00:01:50 | Step 636543 / 708000 | TPS 259.713 | ETA 00:04:35
Time 00:02:00 | Step 639176 / 708000 | TPS 263.259 | ETA 00:04:21
Time 00:02:10 | Step 641779 / 708000 | TPS 260.072 | ETA 00:04:14
Time 00:02:20 | Step 644404 / 708000 | TPS 262.277 | ETA 00:04:02
Time 00:02:30 | Step 647001 / 708000 | TPS 259.382 | ETA 00:03:55
Time 00:02:40 | Step 649604 / 708000 | TPS 260.294 | ETA 00:03:44
Time 00:02:50 | Step 652213 / 708000 | TPS 260.823 | ETA 00:03:33
Time 00:03:00 | Step 654829 / 708000 | TPS 261.542 | ETA 00:03:23
Time 00:03:10 | Step 657402 / 708000 | TPS 257.242 | ETA 00:03:16
Time 00:03:20 | Step 659956 / 708000 | TPS 255.257 | ETA 00:03:08
Time 00:03:30 | Step 662507 / 708000 | TPS 254.913 | ETA 00:02:58
Time 00:03:40 | Step 665084 / 708000 | TPS 257.597 | ETA 00:02:46
Time 00:03:50 | Step 667672 / 708000 | TPS 258.636 | ETA 00:02:35
Time 00:04:00 | Step 670250 / 708000 | TPS 257.688 | ETA 00:02:26
Time 00:04:10 | Step 672884 / 708000 | TPS 263.396 | ETA 00:02:13
Time 00:04:20 | Step 675502 / 708000 | TPS 261.708 | ETA 00:02:04
Time 00:04:30 | Step 678092 / 708000 | TPS 258.994 | ETA 00:01:55
Time 00:04:40 | Step 680679 / 708000 | TPS 258.552 | ETA 00:01:45
Time 00:04:50 | Step 683203 / 708000 | TPS 252.393 | ETA 00:01:38
Time 00:05:00 | Step 685806 / 708000 | TPS 260.189 | ETA 00:01:25
Time 00:05:10 | Step 688376 / 708000 | TPS 256.892 | ETA 00:01:16
Time 00:05:20 | Step 691024 / 708000 | TPS 264.756 | ETA 00:01:04
Time 00:05:30 | Step 693674 / 708000 | TPS 264.983 | ETA 00:00:54
Time 00:05:40 | Step 696286 / 708000 | TPS 260.991 | ETA 00:00:44
Time 00:05:50 | Step 698859 / 708000 | TPS 257.116 | ETA 00:00:35
Time 00:06:00 | Step 701451 / 708000 | TPS 259.112 | ETA 00:00:25
Time 00:06:10 | Step 704003 / 708000 | TPS 255.119 | ETA 00:00:15
Time 00:06:20 | Step 706624 / 708000 | TPS 261.985 | ETA 00:00:05
Time 00:06:25 | Step 708000 / 708000 | TPS 261.441 | ETA 00:00:00
Average TPS: 259.45
---------
-- Neighborlist stats:
37564 normal updates / 334 forced updates / 0 dangerous updates
n_neigh_min: 34 / n_neigh_max: 187 / n_neigh_avg: 147.973
shortest rebuild period: 1
** run complete **
[33mWARNING: Skipping user bind, non existent bind point (file) in container: '/usr/bin/nvidia-smi'
[0m[33mWARNING: Skipping user bind, non existent bind point (file) in container: '/usr/bin/nvidia-debugdump'
[0m[33mWARNING: Skipping user bind, non existent bind point (file) in container: '/usr/bin/nvidia-persistenced'
[0m[33mWARNING: Skipping user bind, non existent bind point (file) in container: '/usr/bin/nvidia-cuda-mps-control'
[0m[33mWARNING: Skipping user bind, non existent bind point (file) in container: '/usr/bin/nvidia-cuda-mps-server'
[0mHOOMD-blue 2.3.5 CUDA (8.0) DOUBLE HPMC_MIXED TBB SSE SSE2 
Compiled: 10/08/18
Copyright 2009-2018 The Regents of the University of Michigan.
-----
You are using HOOMD-blue. Please cite the following:
* J A Anderson, C D Lorenz, and A Travesset. "General purpose molecular dynamics
  simulations fully implemented on graphics processing units", Journal of
  Computational Physics 227 (2008) 5342--5359
* J Glaser, T D Nguyen, J A Anderson, P Liu, F Spiga, J A Millan, D C Morse, and
  S C Glotzer. "Strong scaling of general-purpose molecular dynamics simulations
  on GPUs", Computer Physics Communications 192 (2015) 97--107
-----
notice(2): This system is not compute exclusive, using local rank to select GPUs
HOOMD-blue is running on the following GPU(s):
 [0]            Tesla K20m  13 SM_3.5 @ 0.706 GHz, 4743 MiB DRAM
Equilibrium_59.py:046  |  system = hoomd.init.read_gsd(ramp_file,frame = -1)
notice(2): Group "all" created containing 1004 particles
Equilibrium_59.py:050  |  rigid = hoomd.md.constrain.rigid();
notice(2): constrain.rigid(): Creating 1000 rigid bodies (adding 8000 particles)
Equilibrium_59.py:062  |  nl = hoomd.md.nlist.tree()
-----
You are using tree neighbor lists. Please cite the following:
* M P Howard, J A Anderson, A Nikoubashman, S C Glotzer, and A Z
  Panagiotopoulos. "Efficient neighbor list calculation for molecular simulation
  of colloidal systems using graphics processing units", Computer Physics
  Communications 203 (2016) 45--52
-----
Equilibrium_59.py:064  |  lj = hoomd.md.pair.lj(r_cut = 3.5, nlist=nl)
Equilibrium_59.py:065  |  lj.set_params(mode='shift')
Equilibrium_59.py:069  |  lj.pair_coeff.set('NP','NP', epsilon = 1.0, sigma = 5.0);
Equilibrium_59.py:070  |  lj.pair_coeff.set('M' ,'M' , epsilon = 1.0, sigma = 1.0);
Equilibrium_59.py:071  |  lj.pair_coeff.set('A' ,'A' , epsilon = 1.0, sigma = 1.0);
Equilibrium_59.py:072  |  lj.pair_coeff.set('M' ,'A' , epsilon = 1.0, sigma = 1.0);
Equilibrium_59.py:073  |  lj.pair_coeff.set('NP','M' , epsilon = 1.0, sigma = 3.0);
Equilibrium_59.py:074  |  lj.pair_coeff.set('NP','A' , epsilon = 1.0, sigma = 3.0);
Equilibrium_59.py:078  |  hoomd.md.integrate.mode_standard(dt = 0.005);
Equilibrium_59.py:082  |  nanoparticles = hoomd.group.type(name = 'Nano_Particles', type = 'NP');
notice(2): Group "Nano_Particles" created containing 4 particles
Equilibrium_59.py:083  |  mesogens = hoomd.group.rigid_center();
notice(2): Group "rigid_center" created containing 1000 particles
notice(2): Group "NP_Mes" created containing 1004 particles
Equilibrium_59.py:088  |  npt = hoomd.md.integrate.npt(group = groupNP_mes, kT = temp, tau = 15.0, tauP = 15.0, P = pressure);
Equilibrium_59.py:095  |  log = hoomd.analyze.log(filename = log_file,
                         quantities = ['num_particles',
                                     'ndof',
                                     'translational_ndof',
                                     'rotational_ndof',
                                     'potential_energy',
                                     'kinetic_energy',
                                     'translational_kinetic_energy',
                                     'rotational_kinetic_energy',
                                     'temperature',
                                     'pressure',
                                      'volume'],
                         period = 1e3,
                         overwrite = True);
Equilibrium_59.py:111  |                 group = hoomd.group.all(),
Equilibrium_59.py:109  |  gsd = hoomd.dump.gsd(gsd_file,
               period = 1e3,
               group = hoomd.group.all(),
               overwrite=True); 
Equilibrium_59.py:113  |  meso_gsd = hoomd.dump.gsd(meso_gsd_file,
               period = 1e3,
               group = mesogens,
               overwrite=True); 
Equilibrium_59.py:124  |  hoomd.run(steps)
notice(2): -- Neighborlist exclusion statistics -- :
notice(2): Particles with 0 exclusions             : 9004
notice(2): Neighbors included by diameter          : no
notice(2): Neighbors excluded when in the same body: yes
** starting run **
Time 00:00:10 | Step 659334 / 757000 | TPS 233.372 | ETA 00:06:58
Time 00:00:20 | Step 661866 / 757000 | TPS 253.185 | ETA 00:06:15
Time 00:00:30 | Step 664420 / 757000 | TPS 255.219 | ETA 00:06:02
Time 00:00:40 | Step 667046 / 757000 | TPS 262.481 | ETA 00:05:42
Time 00:00:50 | Step 669669 / 757000 | TPS 262.141 | ETA 00:05:33
Time 00:01:00 | Step 672260 / 757000 | TPS 259.09 | ETA 00:05:27
Time 00:01:10 | Step 674893 / 757000 | TPS 263.135 | ETA 00:05:12
Time 00:01:20 | Step 677525 / 757000 | TPS 263.186 | ETA 00:05:01
Time 00:01:30 | Step 680160 / 757000 | TPS 263.476 | ETA 00:04:51
Time 00:01:40 | Step 682790 / 757000 | TPS 262.988 | ETA 00:04:42
Time 00:01:50 | Step 685386 / 757000 | TPS 259.591 | ETA 00:04:35
Time 00:02:00 | Step 687987 / 757000 | TPS 260.012 | ETA 00:04:25
Time 00:02:10 | Step 690568 / 757000 | TPS 257.952 | ETA 00:04:17
Time 00:02:20 | Step 693181 / 757000 | TPS 261.273 | ETA 00:04:04
Time 00:02:30 | Step 695766 / 757000 | TPS 258.457 | ETA 00:03:56
Time 00:02:40 | Step 698278 / 757000 | TPS 251.118 | ETA 00:03:53
Time 00:02:50 | Step 700905 / 757000 | TPS 262.699 | ETA 00:03:33
Time 00:03:00 | Step 703491 / 757000 | TPS 258.491 | ETA 00:03:27
Time 00:03:10 | Step 706068 / 757000 | TPS 257.577 | ETA 00:03:17
Time 00:03:20 | Step 708649 / 757000 | TPS 258.092 | ETA 00:03:07
Time 00:03:30 | Step 711261 / 757000 | TPS 261.124 | ETA 00:02:55
Time 00:03:40 | Step 713880 / 757000 | TPS 261.726 | ETA 00:02:44
Time 00:03:50 | Step 716497 / 757000 | TPS 261.476 | ETA 00:02:34
Time 00:04:00 | Step 719050 / 757000 | TPS 255.215 | ETA 00:02:28
Time 00:04:10 | Step 721666 / 757000 | TPS 261.41 | ETA 00:02:15
Time 00:04:20 | Step 724297 / 757000 | TPS 263.068 | ETA 00:02:04
Time 00:04:30 | Step 726879 / 757000 | TPS 258.178 | ETA 00:01:56
Time 00:04:40 | Step 729470 / 757000 | TPS 259.055 | ETA 00:01:46
Time 00:04:50 | Step 732073 / 757000 | TPS 260.084 | ETA 00:01:35
Time 00:05:00 | Step 734651 / 757000 | TPS 257.778 | ETA 00:01:26
Time 00:05:10 | Step 737287 / 757000 | TPS 263.505 | ETA 00:01:14
Time 00:05:20 | Step 739927 / 757000 | TPS 263.966 | ETA 00:01:04
Time 00:05:30 | Step 742557 / 757000 | TPS 262.802 | ETA 00:00:54
Time 00:05:40 | Step 745226 / 757000 | TPS 266.823 | ETA 00:00:44
Time 00:05:50 | Step 747858 / 757000 | TPS 262.974 | ETA 00:00:34
Time 00:06:00 | Step 750449 / 757000 | TPS 259.074 | ETA 00:00:25
Time 00:06:10 | Step 753105 / 757000 | TPS 265.376 | ETA 00:00:14
Time 00:06:20 | Step 755725 / 757000 | TPS 261.981 | ETA 00:00:04
Time 00:06:25 | Step 757000 / 757000 | TPS 260.856 | ETA 00:00:00
Average TPS: 259.729
---------
-- Neighborlist stats:
38638 normal updates / 335 forced updates / 0 dangerous updates
n_neigh_min: 36 / n_neigh_max: 186 / n_neigh_avg: 142.195
shortest rebuild period: 2
** run complete **
[33mWARNING: Skipping user bind, non existent bind point (file) in container: '/usr/bin/nvidia-smi'
[0m[33mWARNING: Skipping user bind, non existent bind point (file) in container: '/usr/bin/nvidia-debugdump'
[0m[33mWARNING: Skipping user bind, non existent bind point (file) in container: '/usr/bin/nvidia-persistenced'
[0m[33mWARNING: Skipping user bind, non existent bind point (file) in container: '/usr/bin/nvidia-cuda-mps-control'
[0m[33mWARNING: Skipping user bind, non existent bind point (file) in container: '/usr/bin/nvidia-cuda-mps-server'
[0mHOOMD-blue 2.3.5 CUDA (8.0) DOUBLE HPMC_MIXED TBB SSE SSE2 
Compiled: 10/08/18
Copyright 2009-2018 The Regents of the University of Michigan.
-----
You are using HOOMD-blue. Please cite the following:
* J A Anderson, C D Lorenz, and A Travesset. "General purpose molecular dynamics
  simulations fully implemented on graphics processing units", Journal of
  Computational Physics 227 (2008) 5342--5359
* J Glaser, T D Nguyen, J A Anderson, P Liu, F Spiga, J A Millan, D C Morse, and
  S C Glotzer. "Strong scaling of general-purpose molecular dynamics simulations
  on GPUs", Computer Physics Communications 192 (2015) 97--107
-----
notice(2): This system is not compute exclusive, using local rank to select GPUs
HOOMD-blue is running on the following GPU(s):
 [0]            Tesla K20m  13 SM_3.5 @ 0.706 GHz, 4743 MiB DRAM
Equilibrium_61.py:046  |  system = hoomd.init.read_gsd(ramp_file,frame = -1)
notice(2): Group "all" created containing 1004 particles
Equilibrium_61.py:050  |  rigid = hoomd.md.constrain.rigid();
notice(2): constrain.rigid(): Creating 1000 rigid bodies (adding 8000 particles)
Equilibrium_61.py:062  |  nl = hoomd.md.nlist.tree()
-----
You are using tree neighbor lists. Please cite the following:
* M P Howard, J A Anderson, A Nikoubashman, S C Glotzer, and A Z
  Panagiotopoulos. "Efficient neighbor list calculation for molecular simulation
  of colloidal systems using graphics processing units", Computer Physics
  Communications 203 (2016) 45--52
-----
Equilibrium_61.py:064  |  lj = hoomd.md.pair.lj(r_cut = 3.5, nlist=nl)
Equilibrium_61.py:065  |  lj.set_params(mode='shift')
Equilibrium_61.py:069  |  lj.pair_coeff.set('NP','NP', epsilon = 1.0, sigma = 5.0);
Equilibrium_61.py:070  |  lj.pair_coeff.set('M' ,'M' , epsilon = 1.0, sigma = 1.0);
Equilibrium_61.py:071  |  lj.pair_coeff.set('A' ,'A' , epsilon = 1.0, sigma = 1.0);
Equilibrium_61.py:072  |  lj.pair_coeff.set('M' ,'A' , epsilon = 1.0, sigma = 1.0);
Equilibrium_61.py:073  |  lj.pair_coeff.set('NP','M' , epsilon = 1.0, sigma = 3.0);
Equilibrium_61.py:074  |  lj.pair_coeff.set('NP','A' , epsilon = 1.0, sigma = 3.0);
Equilibrium_61.py:078  |  hoomd.md.integrate.mode_standard(dt = 0.005);
Equilibrium_61.py:082  |  nanoparticles = hoomd.group.type(name = 'Nano_Particles', type = 'NP');
notice(2): Group "Nano_Particles" created containing 4 particles
Equilibrium_61.py:083  |  mesogens = hoomd.group.rigid_center();
notice(2): Group "rigid_center" created containing 1000 particles
notice(2): Group "NP_Mes" created containing 1004 particles
Equilibrium_61.py:088  |  npt = hoomd.md.integrate.npt(group = groupNP_mes, kT = temp, tau = 15.0, tauP = 15.0, P = pressure);
Equilibrium_61.py:095  |  log = hoomd.analyze.log(filename = log_file,
                         quantities = ['num_particles',
                                     'ndof',
                                     'translational_ndof',
                                     'rotational_ndof',
                                     'potential_energy',
                                     'kinetic_energy',
                                     'translational_kinetic_energy',
                                     'rotational_kinetic_energy',
                                     'temperature',
                                     'pressure',
                                      'volume'],
                         period = 1e3,
                         overwrite = True);
Equilibrium_61.py:111  |                 group = hoomd.group.all(),
Equilibrium_61.py:109  |  gsd = hoomd.dump.gsd(gsd_file,
               period = 1e3,
               group = hoomd.group.all(),
               overwrite=True); 
Equilibrium_61.py:113  |  meso_gsd = hoomd.dump.gsd(meso_gsd_file,
               period = 1e3,
               group = mesogens,
               overwrite=True); 
Equilibrium_61.py:124  |  hoomd.run(steps)
notice(2): -- Neighborlist exclusion statistics -- :
notice(2): Particles with 0 exclusions             : 9004
notice(2): Neighbors included by diameter          : no
notice(2): Neighbors excluded when in the same body: yes
** starting run **
Time 00:00:10 | Step 708345 / 806000 | TPS 234.489 | ETA 00:06:56
Time 00:00:20 | Step 710902 / 806000 | TPS 255.627 | ETA 00:06:12
Time 00:00:30 | Step 713494 / 806000 | TPS 259.149 | ETA 00:05:56
Time 00:00:40 | Step 716137 / 806000 | TPS 264.289 | ETA 00:05:40
Time 00:00:50 | Step 718807 / 806000 | TPS 266.911 | ETA 00:05:26
Time 00:01:00 | Step 721427 / 806000 | TPS 261.996 | ETA 00:05:22
Time 00:01:10 | Step 724038 / 806000 | TPS 261.042 | ETA 00:05:13
Time 00:01:20 | Step 726662 / 806000 | TPS 262.261 | ETA 00:05:02
Time 00:01:30 | Step 729255 / 806000 | TPS 259.262 | ETA 00:04:56
Time 00:01:40 | Step 731855 / 806000 | TPS 259.857 | ETA 00:04:45
Time 00:01:50 | Step 734448 / 806000 | TPS 259.088 | ETA 00:04:36
Time 00:02:00 | Step 736958 / 806000 | TPS 250.786 | ETA 00:04:35
Time 00:02:10 | Step 739563 / 806000 | TPS 260.316 | ETA 00:04:15
Time 00:02:20 | Step 742144 / 806000 | TPS 258.049 | ETA 00:04:07
Time 00:02:30 | Step 744765 / 806000 | TPS 262.035 | ETA 00:03:53
Time 00:02:40 | Step 747384 / 806000 | TPS 261.713 | ETA 00:03:43
Time 00:02:50 | Step 749921 / 806000 | TPS 253.509 | ETA 00:03:41
Time 00:03:00 | Step 752490 / 806000 | TPS 256.8 | ETA 00:03:28
Time 00:03:10 | Step 755012 / 806000 | TPS 252.119 | ETA 00:03:22
Time 00:03:20 | Step 757593 / 806000 | TPS 257.905 | ETA 00:03:07
Time 00:03:30 | Step 760181 / 806000 | TPS 258.788 | ETA 00:02:57
Time 00:03:40 | Step 762796 / 806000 | TPS 261.438 | ETA 00:02:45
Time 00:03:50 | Step 765368 / 806000 | TPS 257.015 | ETA 00:02:38
Time 00:04:00 | Step 767954 / 806000 | TPS 258.592 | ETA 00:02:27
Time 00:04:10 | Step 770581 / 806000 | TPS 262.549 | ETA 00:02:14
Time 00:04:20 | Step 773151 / 806000 | TPS 256.876 | ETA 00:02:07
Time 00:04:30 | Step 775789 / 806000 | TPS 263.662 | ETA 00:01:54
Time 00:04:40 | Step 778443 / 806000 | TPS 265.286 | ETA 00:01:43
Time 00:04:50 | Step 781124 / 806000 | TPS 267.912 | ETA 00:01:32
Time 00:05:00 | Step 783771 / 806000 | TPS 264.648 | ETA 00:01:23
Time 00:05:10 | Step 786425 / 806000 | TPS 265.276 | ETA 00:01:13
Time 00:05:20 | Step 789001 / 806000 | TPS 257.211 | ETA 00:01:06
Time 00:05:30 | Step 791600 / 806000 | TPS 259.752 | ETA 00:00:55
Time 00:05:40 | Step 794209 / 806000 | TPS 260.718 | ETA 00:00:45
Time 00:05:50 | Step 796776 / 806000 | TPS 256.635 | ETA 00:00:35
Time 00:06:00 | Step 799415 / 806000 | TPS 263.67 | ETA 00:00:24
Time 00:06:10 | Step 802058 / 806000 | TPS 264.253 | ETA 00:00:14
Time 00:06:20 | Step 804641 / 806000 | TPS 258.24 | ETA 00:00:05
Time 00:06:25 | Step 806000 / 806000 | TPS 257.834 | ETA 00:00:00
Average TPS: 259.444
---------
-- Neighborlist stats:
40206 normal updates / 334 forced updates / 0 dangerous updates
n_neigh_min: 37 / n_neigh_max: 177 / n_neigh_avg: 137.182
shortest rebuild period: 1
** run complete **
[33mWARNING: Skipping user bind, non existent bind point (file) in container: '/usr/bin/nvidia-smi'
[0m[33mWARNING: Skipping user bind, non existent bind point (file) in container: '/usr/bin/nvidia-debugdump'
[0m[33mWARNING: Skipping user bind, non existent bind point (file) in container: '/usr/bin/nvidia-persistenced'
[0m[33mWARNING: Skipping user bind, non existent bind point (file) in container: '/usr/bin/nvidia-cuda-mps-control'
[0m[33mWARNING: Skipping user bind, non existent bind point (file) in container: '/usr/bin/nvidia-cuda-mps-server'
[0mHOOMD-blue 2.3.5 CUDA (8.0) DOUBLE HPMC_MIXED TBB SSE SSE2 
Compiled: 10/08/18
Copyright 2009-2018 The Regents of the University of Michigan.
-----
You are using HOOMD-blue. Please cite the following:
* J A Anderson, C D Lorenz, and A Travesset. "General purpose molecular dynamics
  simulations fully implemented on graphics processing units", Journal of
  Computational Physics 227 (2008) 5342--5359
* J Glaser, T D Nguyen, J A Anderson, P Liu, F Spiga, J A Millan, D C Morse, and
  S C Glotzer. "Strong scaling of general-purpose molecular dynamics simulations
  on GPUs", Computer Physics Communications 192 (2015) 97--107
-----
notice(2): This system is not compute exclusive, using local rank to select GPUs
HOOMD-blue is running on the following GPU(s):
 [0]            Tesla K20m  13 SM_3.5 @ 0.706 GHz, 4743 MiB DRAM
Equilibrium_63.py:046  |  system = hoomd.init.read_gsd(ramp_file,frame = -1)
notice(2): Group "all" created containing 1004 particles
Equilibrium_63.py:050  |  rigid = hoomd.md.constrain.rigid();
notice(2): constrain.rigid(): Creating 1000 rigid bodies (adding 8000 particles)
Equilibrium_63.py:062  |  nl = hoomd.md.nlist.tree()
-----
You are using tree neighbor lists. Please cite the following:
* M P Howard, J A Anderson, A Nikoubashman, S C Glotzer, and A Z
  Panagiotopoulos. "Efficient neighbor list calculation for molecular simulation
  of colloidal systems using graphics processing units", Computer Physics
  Communications 203 (2016) 45--52
-----
Equilibrium_63.py:064  |  lj = hoomd.md.pair.lj(r_cut = 3.5, nlist=nl)
Equilibrium_63.py:065  |  lj.set_params(mode='shift')
Equilibrium_63.py:069  |  lj.pair_coeff.set('NP','NP', epsilon = 1.0, sigma = 5.0);
Equilibrium_63.py:070  |  lj.pair_coeff.set('M' ,'M' , epsilon = 1.0, sigma = 1.0);
Equilibrium_63.py:071  |  lj.pair_coeff.set('A' ,'A' , epsilon = 1.0, sigma = 1.0);
Equilibrium_63.py:072  |  lj.pair_coeff.set('M' ,'A' , epsilon = 1.0, sigma = 1.0);
Equilibrium_63.py:073  |  lj.pair_coeff.set('NP','M' , epsilon = 1.0, sigma = 3.0);
Equilibrium_63.py:074  |  lj.pair_coeff.set('NP','A' , epsilon = 1.0, sigma = 3.0);
Equilibrium_63.py:078  |  hoomd.md.integrate.mode_standard(dt = 0.005);
Equilibrium_63.py:082  |  nanoparticles = hoomd.group.type(name = 'Nano_Particles', type = 'NP');
notice(2): Group "Nano_Particles" created containing 4 particles
Equilibrium_63.py:083  |  mesogens = hoomd.group.rigid_center();
notice(2): Group "rigid_center" created containing 1000 particles
notice(2): Group "NP_Mes" created containing 1004 particles
Equilibrium_63.py:088  |  npt = hoomd.md.integrate.npt(group = groupNP_mes, kT = temp, tau = 15.0, tauP = 15.0, P = pressure);
Equilibrium_63.py:095  |  log = hoomd.analyze.log(filename = log_file,
                         quantities = ['num_particles',
                                     'ndof',
                                     'translational_ndof',
                                     'rotational_ndof',
                                     'potential_energy',
                                     'kinetic_energy',
                                     'translational_kinetic_energy',
                                     'rotational_kinetic_energy',
                                     'temperature',
                                     'pressure',
                                      'volume'],
                         period = 1e3,
                         overwrite = True);
Equilibrium_63.py:111  |                 group = hoomd.group.all(),
Equilibrium_63.py:109  |  gsd = hoomd.dump.gsd(gsd_file,
               period = 1e3,
               group = hoomd.group.all(),
               overwrite=True); 
Equilibrium_63.py:113  |  meso_gsd = hoomd.dump.gsd(meso_gsd_file,
               period = 1e3,
               group = mesogens,
               overwrite=True); 
Equilibrium_63.py:124  |  hoomd.run(steps)
notice(2): -- Neighborlist exclusion statistics -- :
notice(2): Particles with 0 exclusions             : 9004
notice(2): Neighbors included by diameter          : no
notice(2): Neighbors excluded when in the same body: yes
** starting run **
Time 00:00:10 | Step 757376 / 855000 | TPS 237.515 | ETA 00:06:51
Time 00:00:20 | Step 759943 / 855000 | TPS 256.684 | ETA 00:06:10
Time 00:00:30 | Step 762493 / 855000 | TPS 254.984 | ETA 00:06:02
Time 00:00:40 | Step 765124 / 855000 | TPS 262.959 | ETA 00:05:41
Time 00:00:50 | Step 767819 / 855000 | TPS 269.442 | ETA 00:05:23
Time 00:01:00 | Step 770493 / 855000 | TPS 267.199 | ETA 00:05:16
Time 00:01:10 | Step 773165 / 855000 | TPS 267.186 | ETA 00:05:06
Time 00:01:20 | Step 775825 / 855000 | TPS 265.886 | ETA 00:04:57
Time 00:01:30 | Step 778475 / 855000 | TPS 264.88 | ETA 00:04:48
Time 00:01:40 | Step 781149 / 855000 | TPS 267.235 | ETA 00:04:36
Time 00:01:50 | Step 783768 / 855000 | TPS 261.731 | ETA 00:04:32
Time 00:02:00 | Step 786442 / 855000 | TPS 267.4 | ETA 00:04:16
Time 00:02:10 | Step 789053 / 855000 | TPS 261.017 | ETA 00:04:12
Time 00:02:20 | Step 791677 / 855000 | TPS 262.27 | ETA 00:04:01
Time 00:02:30 | Step 794381 / 855000 | TPS 270.291 | ETA 00:03:44
Time 00:02:40 | Step 797041 / 855000 | TPS 265.958 | ETA 00:03:37
Time 00:02:50 | Step 799718 / 855000 | TPS 267.66 | ETA 00:03:26
Time 00:03:00 | Step 802427 / 855000 | TPS 270.789 | ETA 00:03:14
Time 00:03:10 | Step 805022 / 855000 | TPS 259.401 | ETA 00:03:12
Time 00:03:20 | Step 807634 / 855000 | TPS 261.04 | ETA 00:03:01
Time 00:03:30 | Step 810230 / 855000 | TPS 259.463 | ETA 00:02:52
Time 00:03:40 | Step 812824 / 855000 | TPS 259.333 | ETA 00:02:42
Time 00:03:50 | Step 815443 / 855000 | TPS 261.884 | ETA 00:02:31
Time 00:04:00 | Step 818110 / 855000 | TPS 266.611 | ETA 00:02:18
Time 00:04:10 | Step 820731 / 855000 | TPS 261.921 | ETA 00:02:10
Time 00:04:20 | Step 823377 / 855000 | TPS 264.508 | ETA 00:01:59
Time 00:04:30 | Step 825955 / 855000 | TPS 257.667 | ETA 00:01:52
Time 00:04:40 | Step 828507 / 855000 | TPS 255.178 | ETA 00:01:43
Time 00:04:50 | Step 831098 / 855000 | TPS 259.09 | ETA 00:01:32
Time 00:05:00 | Step 833749 / 855000 | TPS 265.086 | ETA 00:01:20
Time 00:05:10 | Step 836401 / 855000 | TPS 265.039 | ETA 00:01:10
Time 00:05:20 | Step 839004 / 855000 | TPS 260.201 | ETA 00:01:01
Time 00:05:30 | Step 841561 / 855000 | TPS 255.663 | ETA 00:00:52
Time 00:05:40 | Step 844254 / 855000 | TPS 269.09 | ETA 00:00:39
Time 00:05:50 | Step 846894 / 855000 | TPS 263.799 | ETA 00:00:30
Time 00:06:00 | Step 849519 / 855000 | TPS 262.369 | ETA 00:00:20
Time 00:06:10 | Step 852071 / 855000 | TPS 255.163 | ETA 00:00:11
Time 00:06:20 | Step 854574 / 855000 | TPS 250.215 | ETA 00:00:01
Time 00:06:22 | Step 855000 / 855000 | TPS 250.915 | ETA 00:00:00
Average TPS: 261.893
---------
-- Neighborlist stats:
41680 normal updates / 334 forced updates / 0 dangerous updates
n_neigh_min: 36 / n_neigh_max: 168 / n_neigh_avg: 126.632
shortest rebuild period: 2
** run complete **
[33mWARNING: Skipping user bind, non existent bind point (file) in container: '/usr/bin/nvidia-smi'
[0m[33mWARNING: Skipping user bind, non existent bind point (file) in container: '/usr/bin/nvidia-debugdump'
[0m[33mWARNING: Skipping user bind, non existent bind point (file) in container: '/usr/bin/nvidia-persistenced'
[0m[33mWARNING: Skipping user bind, non existent bind point (file) in container: '/usr/bin/nvidia-cuda-mps-control'
[0m[33mWARNING: Skipping user bind, non existent bind point (file) in container: '/usr/bin/nvidia-cuda-mps-server'
[0mHOOMD-blue 2.3.5 CUDA (8.0) DOUBLE HPMC_MIXED TBB SSE SSE2 
Compiled: 10/08/18
Copyright 2009-2018 The Regents of the University of Michigan.
-----
You are using HOOMD-blue. Please cite the following:
* J A Anderson, C D Lorenz, and A Travesset. "General purpose molecular dynamics
  simulations fully implemented on graphics processing units", Journal of
  Computational Physics 227 (2008) 5342--5359
* J Glaser, T D Nguyen, J A Anderson, P Liu, F Spiga, J A Millan, D C Morse, and
  S C Glotzer. "Strong scaling of general-purpose molecular dynamics simulations
  on GPUs", Computer Physics Communications 192 (2015) 97--107
-----
notice(2): This system is not compute exclusive, using local rank to select GPUs
HOOMD-blue is running on the following GPU(s):
 [0]            Tesla K20m  13 SM_3.5 @ 0.706 GHz, 4743 MiB DRAM
Equilibrium_65.py:046  |  system = hoomd.init.read_gsd(ramp_file,frame = -1)
notice(2): Group "all" created containing 1004 particles
Equilibrium_65.py:050  |  rigid = hoomd.md.constrain.rigid();
notice(2): constrain.rigid(): Creating 1000 rigid bodies (adding 8000 particles)
Equilibrium_65.py:062  |  nl = hoomd.md.nlist.tree()
-----
You are using tree neighbor lists. Please cite the following:
* M P Howard, J A Anderson, A Nikoubashman, S C Glotzer, and A Z
  Panagiotopoulos. "Efficient neighbor list calculation for molecular simulation
  of colloidal systems using graphics processing units", Computer Physics
  Communications 203 (2016) 45--52
-----
Equilibrium_65.py:064  |  lj = hoomd.md.pair.lj(r_cut = 3.5, nlist=nl)
Equilibrium_65.py:065  |  lj.set_params(mode='shift')
Equilibrium_65.py:069  |  lj.pair_coeff.set('NP','NP', epsilon = 1.0, sigma = 5.0);
Equilibrium_65.py:070  |  lj.pair_coeff.set('M' ,'M' , epsilon = 1.0, sigma = 1.0);
Equilibrium_65.py:071  |  lj.pair_coeff.set('A' ,'A' , epsilon = 1.0, sigma = 1.0);
Equilibrium_65.py:072  |  lj.pair_coeff.set('M' ,'A' , epsilon = 1.0, sigma = 1.0);
Equilibrium_65.py:073  |  lj.pair_coeff.set('NP','M' , epsilon = 1.0, sigma = 3.0);
Equilibrium_65.py:074  |  lj.pair_coeff.set('NP','A' , epsilon = 1.0, sigma = 3.0);
Equilibrium_65.py:078  |  hoomd.md.integrate.mode_standard(dt = 0.005);
Equilibrium_65.py:082  |  nanoparticles = hoomd.group.type(name = 'Nano_Particles', type = 'NP');
notice(2): Group "Nano_Particles" created containing 4 particles
Equilibrium_65.py:083  |  mesogens = hoomd.group.rigid_center();
notice(2): Group "rigid_center" created containing 1000 particles
notice(2): Group "NP_Mes" created containing 1004 particles
Equilibrium_65.py:088  |  npt = hoomd.md.integrate.npt(group = groupNP_mes, kT = temp, tau = 15.0, tauP = 15.0, P = pressure);
Equilibrium_65.py:095  |  log = hoomd.analyze.log(filename = log_file,
                         quantities = ['num_particles',
                                     'ndof',
                                     'translational_ndof',
                                     'rotational_ndof',
                                     'potential_energy',
                                     'kinetic_energy',
                                     'translational_kinetic_energy',
                                     'rotational_kinetic_energy',
                                     'temperature',
                                     'pressure',
                                      'volume'],
                         period = 1e3,
                         overwrite = True);
Equilibrium_65.py:111  |                 group = hoomd.group.all(),
Equilibrium_65.py:109  |  gsd = hoomd.dump.gsd(gsd_file,
               period = 1e3,
               group = hoomd.group.all(),
               overwrite=True); 
Equilibrium_65.py:113  |  meso_gsd = hoomd.dump.gsd(meso_gsd_file,
               period = 1e3,
               group = mesogens,
               overwrite=True); 
Equilibrium_65.py:124  |  hoomd.run(steps)
notice(2): -- Neighborlist exclusion statistics -- :
notice(2): Particles with 0 exclusions             : 9004
notice(2): Neighbors included by diameter          : no
notice(2): Neighbors excluded when in the same body: yes
** starting run **
Time 00:00:10 | Step 806586 / 904000 | TPS 258.591 | ETA 00:06:16
Time 00:00:20 | Step 809212 / 904000 | TPS 262.493 | ETA 00:06:01
Time 00:00:30 | Step 811914 / 904000 | TPS 270.07 | ETA 00:05:40
Time 00:00:40 | Step 814634 / 904000 | TPS 271.84 | ETA 00:05:28
Time 00:00:50 | Step 817359 / 904000 | TPS 272.451 | ETA 00:05:18
Time 00:01:00 | Step 820127 / 904000 | TPS 276.711 | ETA 00:05:03
Time 00:01:10 | Step 823019 / 904000 | TPS 289.143 | ETA 00:04:40
Time 00:01:20 | Step 825873 / 904000 | TPS 285.318 | ETA 00:04:33
Time 00:01:30 | Step 828651 / 904000 | TPS 277.59 | ETA 00:04:31
Time 00:01:40 | Step 831461 / 904000 | TPS 280.999 | ETA 00:04:18
Time 00:01:50 | Step 834221 / 904000 | TPS 275.886 | ETA 00:04:12
Time 00:02:00 | Step 836958 / 904000 | TPS 273.522 | ETA 00:04:05
Time 00:02:10 | Step 839708 / 904000 | TPS 274.93 | ETA 00:03:53
Time 00:02:20 | Step 842421 / 904000 | TPS 271.269 | ETA 00:03:47
Time 00:02:30 | Step 845239 / 904000 | TPS 281.612 | ETA 00:03:28
Time 00:02:40 | Step 848022 / 904000 | TPS 278.241 | ETA 00:03:21
Time 00:02:50 | Step 850820 / 904000 | TPS 279.708 | ETA 00:03:10
Time 00:03:00 | Step 853609 / 904000 | TPS 278.691 | ETA 00:03:00
Time 00:03:10 | Step 856419 / 904000 | TPS 280.824 | ETA 00:02:49
Time 00:03:20 | Step 859169 / 904000 | TPS 274.955 | ETA 00:02:43
Time 00:03:30 | Step 861853 / 904000 | TPS 268.339 | ETA 00:02:37
Time 00:03:40 | Step 864496 / 904000 | TPS 264.265 | ETA 00:02:29
Time 00:03:50 | Step 867198 / 904000 | TPS 270.011 | ETA 00:02:16
Time 00:04:00 | Step 869960 / 904000 | TPS 276.014 | ETA 00:02:03
Time 00:04:10 | Step 872809 / 904000 | TPS 284.844 | ETA 00:01:49
Time 00:04:20 | Step 875661 / 904000 | TPS 285.196 | ETA 00:01:39
Time 00:04:30 | Step 878512 / 904000 | TPS 285.034 | ETA 00:01:29
Time 00:04:40 | Step 883801 / 904000 | TPS 519.936 | ETA 00:00:38
Time 00:04:50 | Step 890401 / 904000 | TPS 646.878 | ETA 00:00:21
Time 00:05:00 | Step 897001 / 904000 | TPS 647.167 | ETA 00:00:10
Time 00:05:11 | Step 903601 / 904000 | TPS 647.581 | ETA 00:00:00
Time 00:05:11 | Step 904000 / 904000 | TPS 784.999 | ETA 00:00:00
Average TPS: 321.162
---------
-- Neighborlist stats:
32536 normal updates / 335 forced updates / 0 dangerous updates
n_neigh_min: 0 / n_neigh_max: 0 / n_neigh_avg: 0
shortest rebuild period: 1
** run complete **
[33mWARNING: Skipping user bind, non existent bind point (file) in container: '/usr/bin/nvidia-smi'
[0m[33mWARNING: Skipping user bind, non existent bind point (file) in container: '/usr/bin/nvidia-debugdump'
[0m[33mWARNING: Skipping user bind, non existent bind point (file) in container: '/usr/bin/nvidia-persistenced'
[0m[33mWARNING: Skipping user bind, non existent bind point (file) in container: '/usr/bin/nvidia-cuda-mps-control'
[0m[33mWARNING: Skipping user bind, non existent bind point (file) in container: '/usr/bin/nvidia-cuda-mps-server'
[0m**ERROR**: nlist.tree(): Particle 876 is out of bounds (x: -7.13907, y: -92.9503, z: -62.1946, fx: 0.281763, fy: -2.34143, fz:-1.40125)
HOOMD-blue 2.3.5 CUDA (8.0) DOUBLE HPMC_MIXED TBB SSE SSE2 
Compiled: 10/08/18
Copyright 2009-2018 The Regents of the University of Michigan.
-----
You are using HOOMD-blue. Please cite the following:
* J A Anderson, C D Lorenz, and A Travesset. "General purpose molecular dynamics
  simulations fully implemented on graphics processing units", Journal of
  Computational Physics 227 (2008) 5342--5359
* J Glaser, T D Nguyen, J A Anderson, P Liu, F Spiga, J A Millan, D C Morse, and
  S C Glotzer. "Strong scaling of general-purpose molecular dynamics simulations
  on GPUs", Computer Physics Communications 192 (2015) 97--107
-----
notice(2): This system is not compute exclusive, using local rank to select GPUs
HOOMD-blue is running on the following GPU(s):
 [0]            Tesla K20m  13 SM_3.5 @ 0.706 GHz, 4743 MiB DRAM
Equilibrium_67.py:046  |  system = hoomd.init.read_gsd(ramp_file,frame = -1)
notice(2): Group "all" created containing 1004 particles
Equilibrium_67.py:050  |  rigid = hoomd.md.constrain.rigid();
notice(2): constrain.rigid(): Creating 1000 rigid bodies (adding 8000 particles)
Equilibrium_67.py:062  |  nl = hoomd.md.nlist.tree()
-----
You are using tree neighbor lists. Please cite the following:
* M P Howard, J A Anderson, A Nikoubashman, S C Glotzer, and A Z
  Panagiotopoulos. "Efficient neighbor list calculation for molecular simulation
  of colloidal systems using graphics processing units", Computer Physics
  Communications 203 (2016) 45--52
-----
Equilibrium_67.py:064  |  lj = hoomd.md.pair.lj(r_cut = 3.5, nlist=nl)
Equilibrium_67.py:065  |  lj.set_params(mode='shift')
Equilibrium_67.py:069  |  lj.pair_coeff.set('NP','NP', epsilon = 1.0, sigma = 5.0);
Equilibrium_67.py:070  |  lj.pair_coeff.set('M' ,'M' , epsilon = 1.0, sigma = 1.0);
Equilibrium_67.py:071  |  lj.pair_coeff.set('A' ,'A' , epsilon = 1.0, sigma = 1.0);
Equilibrium_67.py:072  |  lj.pair_coeff.set('M' ,'A' , epsilon = 1.0, sigma = 1.0);
Equilibrium_67.py:073  |  lj.pair_coeff.set('NP','M' , epsilon = 1.0, sigma = 3.0);
Equilibrium_67.py:074  |  lj.pair_coeff.set('NP','A' , epsilon = 1.0, sigma = 3.0);
Equilibrium_67.py:078  |  hoomd.md.integrate.mode_standard(dt = 0.005);
Equilibrium_67.py:082  |  nanoparticles = hoomd.group.type(name = 'Nano_Particles', type = 'NP');
notice(2): Group "Nano_Particles" created containing 4 particles
Equilibrium_67.py:083  |  mesogens = hoomd.group.rigid_center();
notice(2): Group "rigid_center" created containing 1000 particles
notice(2): Group "NP_Mes" created containing 1004 particles
Equilibrium_67.py:088  |  npt = hoomd.md.integrate.npt(group = groupNP_mes, kT = temp, tau = 15.0, tauP = 15.0, P = pressure);
Equilibrium_67.py:095  |  log = hoomd.analyze.log(filename = log_file,
                         quantities = ['num_particles',
                                     'ndof',
                                     'translational_ndof',
                                     'rotational_ndof',
                                     'potential_energy',
                                     'kinetic_energy',
                                     'translational_kinetic_energy',
                                     'rotational_kinetic_energy',
                                     'temperature',
                                     'pressure',
                                      'volume'],
                         period = 1e3,
                         overwrite = True);
Equilibrium_67.py:111  |                 group = hoomd.group.all(),
Equilibrium_67.py:109  |  gsd = hoomd.dump.gsd(gsd_file,
               period = 1e3,
               group = hoomd.group.all(),
               overwrite=True); 
Equilibrium_67.py:113  |  meso_gsd = hoomd.dump.gsd(meso_gsd_file,
               period = 1e3,
               group = mesogens,
               overwrite=True); 
Equilibrium_67.py:124  |  hoomd.run(steps)
notice(2): -- Neighborlist exclusion statistics -- :
notice(2): Particles with 0 exclusions             : 9004
notice(2): Neighbors included by diameter          : no
notice(2): Neighbors excluded when in the same body: yes
** starting run **
Time 00:00:10 | Step 855594 / 953000 | TPS 259.379 | ETA 00:06:15
Time 00:00:20 | Step 858332 / 953000 | TPS 273.759 | ETA 00:05:45
Time 00:00:30 | Step 860988 / 953000 | TPS 265.528 | ETA 00:05:46
Traceback (most recent call last):
  File "Equilibrium_67.py", line 124, in <module>
    hoomd.run(steps)
  File "/usr/local/lib/python3.5/dist-packages/hoomd/__init__.py", line 194, in run
    context.current.system.run(int(tsteps), callback_period, callback, limit_hours, int(limit_multiple));
RuntimeError: Error updating neighborlist
[33mWARNING: Skipping user bind, non existent bind point (file) in container: '/usr/bin/nvidia-smi'
[0m[33mWARNING: Skipping user bind, non existent bind point (file) in container: '/usr/bin/nvidia-debugdump'
[0m[33mWARNING: Skipping user bind, non existent bind point (file) in container: '/usr/bin/nvidia-persistenced'
[0m[33mWARNING: Skipping user bind, non existent bind point (file) in container: '/usr/bin/nvidia-cuda-mps-control'
[0m[33mWARNING: Skipping user bind, non existent bind point (file) in container: '/usr/bin/nvidia-cuda-mps-server'
[0mHOOMD-blue 2.3.5 CUDA (8.0) DOUBLE HPMC_MIXED TBB SSE SSE2 
Compiled: 10/08/18
Copyright 2009-2018 The Regents of the University of Michigan.
-----
You are using HOOMD-blue. Please cite the following:
* J A Anderson, C D Lorenz, and A Travesset. "General purpose molecular dynamics
  simulations fully implemented on graphics processing units", Journal of
  Computational Physics 227 (2008) 5342--5359
* J Glaser, T D Nguyen, J A Anderson, P Liu, F Spiga, J A Millan, D C Morse, and
  S C Glotzer. "Strong scaling of general-purpose molecular dynamics simulations
  on GPUs", Computer Physics Communications 192 (2015) 97--107
-----
notice(2): This system is not compute exclusive, using local rank to select GPUs
HOOMD-blue is running on the following GPU(s):
 [0]            Tesla K20m  13 SM_3.5 @ 0.706 GHz, 4743 MiB DRAM
Equilibrium_69.py:046  |  system = hoomd.init.read_gsd(ramp_file,frame = -1)
notice(2): Group "all" created containing 1004 particles
Equilibrium_69.py:050  |  rigid = hoomd.md.constrain.rigid();
notice(2): constrain.rigid(): Creating 1000 rigid bodies (adding 8000 particles)
Equilibrium_69.py:062  |  nl = hoomd.md.nlist.tree()
-----
You are using tree neighbor lists. Please cite the following:
* M P Howard, J A Anderson, A Nikoubashman, S C Glotzer, and A Z
  Panagiotopoulos. "Efficient neighbor list calculation for molecular simulation
  of colloidal systems using graphics processing units", Computer Physics
  Communications 203 (2016) 45--52
-----
Equilibrium_69.py:064  |  lj = hoomd.md.pair.lj(r_cut = 3.5, nlist=nl)
Equilibrium_69.py:065  |  lj.set_params(mode='shift')
Equilibrium_69.py:069  |  lj.pair_coeff.set('NP','NP', epsilon = 1.0, sigma = 5.0);
Equilibrium_69.py:070  |  lj.pair_coeff.set('M' ,'M' , epsilon = 1.0, sigma = 1.0);
Equilibrium_69.py:071  |  lj.pair_coeff.set('A' ,'A' , epsilon = 1.0, sigma = 1.0);
Equilibrium_69.py:072  |  lj.pair_coeff.set('M' ,'A' , epsilon = 1.0, sigma = 1.0);
Equilibrium_69.py:073  |  lj.pair_coeff.set('NP','M' , epsilon = 1.0, sigma = 3.0);
Equilibrium_69.py:074  |  lj.pair_coeff.set('NP','A' , epsilon = 1.0, sigma = 3.0);
Equilibrium_69.py:078  |  hoomd.md.integrate.mode_standard(dt = 0.005);
Equilibrium_69.py:082  |  nanoparticles = hoomd.group.type(name = 'Nano_Particles', type = 'NP');
notice(2): Group "Nano_Particles" created containing 4 particles
Equilibrium_69.py:083  |  mesogens = hoomd.group.rigid_center();
notice(2): Group "rigid_center" created containing 1000 particles
notice(2): Group "NP_Mes" created containing 1004 particles
Equilibrium_69.py:088  |  npt = hoomd.md.integrate.npt(group = groupNP_mes, kT = temp, tau = 15.0, tauP = 15.0, P = pressure);
Equilibrium_69.py:095  |  log = hoomd.analyze.log(filename = log_file,
                         quantities = ['num_particles',
                                     'ndof',
                                     'translational_ndof',
                                     'rotational_ndof',
                                     'potential_energy',
                                     'kinetic_energy',
                                     'translational_kinetic_energy',
                                     'rotational_kinetic_energy',
                                     'temperature',
                                     'pressure',
                                      'volume'],
                         period = 1e3,
                         overwrite = True);
Equilibrium_69.py:111  |                 group = hoomd.group.all(),
Equilibrium_69.py:109  |  gsd = hoomd.dump.gsd(gsd_file,
               period = 1e3,
               group = hoomd.group.all(),
               overwrite=True); 
Equilibrium_69.py:113  |  meso_gsd = hoomd.dump.gsd(meso_gsd_file,
               period = 1e3,
               group = mesogens,
               overwrite=True); 
Equilibrium_69.py:124  |  hoomd.run(steps)
notice(2): -- Neighborlist exclusion statistics -- :
notice(2): Particles with 0 exclusions             : 9004
notice(2): Neighbors included by diameter          : no
notice(2): Neighbors excluded when in the same body: yes
** starting run **
Time 00:00:10 | Step 904606 / 1002000 | TPS 260.539 | ETA 00:06:13
Time 00:00:20 | Step 907341 / 1002000 | TPS 273.378 | ETA 00:05:46
Time 00:00:30 | Step 909976 / 1002000 | TPS 263.487 | ETA 00:05:49
Time 00:00:40 | Step 912660 / 1002000 | TPS 268.325 | ETA 00:05:32
Time 00:00:50 | Step 915395 / 1002000 | TPS 273.393 | ETA 00:05:16
Time 00:01:00 | Step 918152 / 1002000 | TPS 275.56 | ETA 00:05:04
Time 00:01:10 | Step 920919 / 1002000 | TPS 276.603 | ETA 00:04:53
Time 00:01:20 | Step 923641 / 1002000 | TPS 272.108 | ETA 00:04:47
Time 00:01:30 | Step 926445 / 1002000 | TPS 280.239 | ETA 00:04:29
Time 00:01:40 | Step 929172 / 1002000 | TPS 272.612 | ETA 00:04:27
Time 00:01:50 | Step 931864 / 1002000 | TPS 269.078 | ETA 00:04:20
Time 00:02:00 | Step 934567 / 1002000 | TPS 270.251 | ETA 00:04:09
Time 00:02:10 | Step 937256 / 1002000 | TPS 268.867 | ETA 00:04:00
Time 00:02:20 | Step 939961 / 1002000 | TPS 270.413 | ETA 00:03:49
Time 00:02:30 | Step 942777 / 1002000 | TPS 281.469 | ETA 00:03:30
Time 00:02:40 | Step 945620 / 1002000 | TPS 284.283 | ETA 00:03:18
Time 00:02:50 | Step 948385 / 1002000 | TPS 276.461 | ETA 00:03:13
Time 00:03:00 | Step 951155 / 1002000 | TPS 276.909 | ETA 00:03:03
Time 00:03:10 | Step 953884 / 1002000 | TPS 272.898 | ETA 00:02:56
Time 00:03:20 | Step 956578 / 1002000 | TPS 269.384 | ETA 00:02:48
Time 00:03:30 | Step 959258 / 1002000 | TPS 267.918 | ETA 00:02:39
Time 00:03:40 | Step 961930 / 1002000 | TPS 267.03 | ETA 00:02:30
Time 00:03:50 | Step 964604 / 1002000 | TPS 267.264 | ETA 00:02:19
Time 00:04:00 | Step 967385 / 1002000 | TPS 278.066 | ETA 00:02:04
Time 00:04:10 | Step 970148 / 1002000 | TPS 276.173 | ETA 00:01:55
Time 00:04:20 | Step 972926 / 1002000 | TPS 277.73 | ETA 00:01:44
Time 00:04:30 | Step 975654 / 1002000 | TPS 272.791 | ETA 00:01:36
Time 00:04:40 | Step 978345 / 1002000 | TPS 269.093 | ETA 00:01:27
Time 00:04:50 | Step 980972 / 1002000 | TPS 262.687 | ETA 00:01:20
Time 00:05:00 | Step 983630 / 1002000 | TPS 265.783 | ETA 00:01:09
Time 00:05:10 | Step 986297 / 1002000 | TPS 266.519 | ETA 00:00:58
Time 00:05:20 | Step 988971 / 1002000 | TPS 267.3 | ETA 00:00:48
Time 00:05:30 | Step 991731 / 1002000 | TPS 275.933 | ETA 00:00:37
Time 00:05:40 | Step 994539 / 1002000 | TPS 280.788 | ETA 00:00:26
Time 00:05:50 | Step 997320 / 1002000 | TPS 278.089 | ETA 00:00:16
Time 00:06:00 | Step 1000106 / 1002000 | TPS 278.539 | ETA 00:00:06
Time 00:06:07 | Step 1002000 / 1002000 | TPS 271.283 | ETA 00:00:00
Average TPS: 272.421
---------
-- Neighborlist stats:
45552 normal updates / 334 forced updates / 0 dangerous updates
n_neigh_min: 30 / n_neigh_max: 126 / n_neigh_avg: 99.4931
shortest rebuild period: 2
** run complete **
