[33mWARNING: Skipping user bind, non existent bind point (file) in container: '/usr/bin/nvidia-smi'
[0m[33mWARNING: Skipping user bind, non existent bind point (file) in container: '/usr/bin/nvidia-debugdump'
[0m[33mWARNING: Skipping user bind, non existent bind point (file) in container: '/usr/bin/nvidia-persistenced'
[0m[33mWARNING: Skipping user bind, non existent bind point (file) in container: '/usr/bin/nvidia-cuda-mps-control'
[0m[33mWARNING: Skipping user bind, non existent bind point (file) in container: '/usr/bin/nvidia-cuda-mps-server'
[0mHOOMD-blue 2.3.5 CUDA (8.0) DOUBLE HPMC_MIXED TBB SSE SSE2 
Compiled: 10/08/18
Copyright 2009-2018 The Regents of the University of Michigan.
-----
You are using HOOMD-blue. Please cite the following:
* J A Anderson, C D Lorenz, and A Travesset. "General purpose molecular dynamics
  simulations fully implemented on graphics processing units", Journal of
  Computational Physics 227 (2008) 5342--5359
* J Glaser, T D Nguyen, J A Anderson, P Liu, F Spiga, J A Millan, D C Morse, and
  S C Glotzer. "Strong scaling of general-purpose molecular dynamics simulations
  on GPUs", Computer Physics Communications 192 (2015) 97--107
-----
notice(2): This system is not compute exclusive, using local rank to select GPUs
HOOMD-blue is running on the following GPU(s):
 [0]            Tesla K20m  13 SM_3.5 @ 0.706 GHz, 4743 MiB DRAM
Ramp14.py:049  |  system = hoomd.init.read_gsd(ramp_file,frame = -1)
notice(2): Group "all" created containing 1004 particles
Ramp14.py:053  |  rigid = hoomd.md.constrain.rigid();
notice(2): constrain.rigid(): Creating 1000 rigid bodies (adding 8000 particles)
Ramp14.py:065  |  nl = hoomd.md.nlist.tree()
-----
You are using tree neighbor lists. Please cite the following:
* M P Howard, J A Anderson, A Nikoubashman, S C Glotzer, and A Z
  Panagiotopoulos. "Efficient neighbor list calculation for molecular simulation
  of colloidal systems using graphics processing units", Computer Physics
  Communications 203 (2016) 45--52
-----
Ramp14.py:067  |  lj = hoomd.md.pair.lj(r_cut = 3.5, nlist=nl)
Ramp14.py:068  |  lj.set_params(mode='shift')
Ramp14.py:072  |  lj.pair_coeff.set('NP','NP', epsilon = 1.0, sigma = 5.0);
Ramp14.py:073  |  lj.pair_coeff.set('M' ,'M' , epsilon = 1.0, sigma = 1.0);
Ramp14.py:074  |  lj.pair_coeff.set('A' ,'A' , epsilon = 1.0, sigma = 1.0);
Ramp14.py:075  |  lj.pair_coeff.set('M' ,'A' , epsilon = 1.0, sigma = 1.0);
Ramp14.py:076  |  lj.pair_coeff.set('NP','M' , epsilon = 1.0, sigma = 3.0);
Ramp14.py:077  |  lj.pair_coeff.set('NP','A' , epsilon = 1.0, sigma = 3.0);
Ramp14.py:081  |  hoomd.md.integrate.mode_standard(dt = 0.005);
Ramp14.py:085  |  nanoparticles = hoomd.group.type(name = 'Nano_Particles', type = 'NP');
notice(2): Group "Nano_Particles" created containing 4 particles
Ramp14.py:086  |  mesogens = hoomd.group.rigid_center();
notice(2): Group "rigid_center" created containing 1000 particles
notice(2): Group "NP_Mes" created containing 1004 particles
Ramp14.py:092  |  npt = hoomd.md.integrate.npt(group = groupNP_mes, kT = temp, tau = 2.5, tauP = 2.5, P = pressure);
Ramp14.py:101  |  log = hoomd.analyze.log(filename = log_file,
                         quantities = ['num_particles',
                                     'ndof',
                                     'translational_ndof',
                                     'rotational_ndof',
                                     'potential_energy',
                                     'kinetic_energy',
                                     'translational_kinetic_energy',
                                     'rotational_kinetic_energy',
                                     'temperature',
                                     'pressure',
                                      'volume'],
                         period = 1e3,
                         overwrite = True);
Ramp14.py:117  |                 group = hoomd.group.all(),
Ramp14.py:115  |  gsd = hoomd.dump.gsd(gsd_file,
               period = 1e3,
               group = hoomd.group.all(),
               overwrite = True); 
Ramp14.py:119  |  meso_gsd = hoomd.dump.gsd(meso_gsd_file,
               period = 1e3,
               group = groupNP_mes,
               overwrite = True); 
Ramp14.py:130  |  hoomd.run(run_time)
notice(2): -- Neighborlist exclusion statistics -- :
notice(2): Particles with 0 exclusions             : 9004
notice(2): Neighbors included by diameter          : no
notice(2): Neighbors excluded when in the same body: yes
** starting run **
Time 00:00:10 | Step 398736 / 496000 | TPS 273.555 | ETA 00:05:55
Time 00:00:20 | Step 401744 / 496000 | TPS 300.614 | ETA 00:05:13
Time 00:00:30 | Step 404712 / 496000 | TPS 296.739 | ETA 00:05:07
Time 00:00:40 | Step 407648 / 496000 | TPS 293.594 | ETA 00:05:00
Time 00:00:50 | Step 410630 / 496000 | TPS 298.022 | ETA 00:04:46
Time 00:01:00 | Step 413582 / 496000 | TPS 295.199 | ETA 00:04:39
Time 00:01:10 | Step 416556 / 496000 | TPS 297.305 | ETA 00:04:27
Time 00:01:20 | Step 419463 / 496000 | TPS 290.562 | ETA 00:04:23
Time 00:01:30 | Step 422342 / 496000 | TPS 287.752 | ETA 00:04:15
Time 00:01:40 | Step 425252 / 496000 | TPS 290.995 | ETA 00:04:03
Time 00:01:50 | Step 428081 / 496000 | TPS 282.885 | ETA 00:04:00
Time 00:02:00 | Step 431024 / 496000 | TPS 294.192 | ETA 00:03:40
Time 00:02:10 | Step 433967 / 496000 | TPS 294.224 | ETA 00:03:30
Time 00:02:20 | Step 436893 / 496000 | TPS 292.397 | ETA 00:03:22
Time 00:02:30 | Step 439741 / 496000 | TPS 284.615 | ETA 00:03:17
Time 00:02:40 | Step 442632 / 496000 | TPS 289.088 | ETA 00:03:04
Time 00:02:50 | Step 445487 / 496000 | TPS 285.407 | ETA 00:02:56
Time 00:03:00 | Step 448365 / 496000 | TPS 287.636 | ETA 00:02:45
Time 00:03:10 | Step 451160 / 496000 | TPS 279.292 | ETA 00:02:40
Time 00:03:20 | Step 453979 / 496000 | TPS 281.847 | ETA 00:02:29
Time 00:03:30 | Step 456807 / 496000 | TPS 282.799 | ETA 00:02:18
Time 00:03:40 | Step 459628 / 496000 | TPS 282.09 | ETA 00:02:08
Time 00:03:50 | Step 462469 / 496000 | TPS 284.037 | ETA 00:01:58
Time 00:04:00 | Step 465341 / 496000 | TPS 287.196 | ETA 00:01:46
Time 00:04:10 | Step 468114 / 496000 | TPS 277.19 | ETA 00:01:40
Time 00:04:20 | Step 470954 / 496000 | TPS 283.965 | ETA 00:01:28
Time 00:04:30 | Step 473714 / 496000 | TPS 275.842 | ETA 00:01:20
Time 00:04:40 | Step 476456 / 496000 | TPS 274.186 | ETA 00:01:11
Time 00:04:50 | Step 481685 / 496000 | TPS 522.891 | ETA 00:00:27
Time 00:05:00 | Step 488101 / 496000 | TPS 636.836 | ETA 00:00:12
Time 00:05:10 | Step 494701 / 496000 | TPS 650.049 | ETA 00:00:01
Time 00:05:12 | Step 496000 / 496000 | TPS 686.983 | ETA 00:00:00
Average TPS: 320.306
---------
-- Neighborlist stats:
32143 normal updates / 335 forced updates / 0 dangerous updates
n_neigh_min: 0 / n_neigh_max: 0 / n_neigh_avg: 0
shortest rebuild period: 1
** run complete **
[33mWARNING: Skipping user bind, non existent bind point (file) in container: '/usr/bin/nvidia-smi'
[0m[33mWARNING: Skipping user bind, non existent bind point (file) in container: '/usr/bin/nvidia-debugdump'
[0m[33mWARNING: Skipping user bind, non existent bind point (file) in container: '/usr/bin/nvidia-persistenced'
[0m[33mWARNING: Skipping user bind, non existent bind point (file) in container: '/usr/bin/nvidia-cuda-mps-control'
[0m[33mWARNING: Skipping user bind, non existent bind point (file) in container: '/usr/bin/nvidia-cuda-mps-server'
[0mHOOMD-blue 2.3.5 CUDA (8.0) DOUBLE HPMC_MIXED TBB SSE SSE2 
Compiled: 10/08/18
Copyright 2009-2018 The Regents of the University of Michigan.
-----
You are using HOOMD-blue. Please cite the following:
* J A Anderson, C D Lorenz, and A Travesset. "General purpose molecular dynamics
  simulations fully implemented on graphics processing units", Journal of
  Computational Physics 227 (2008) 5342--5359
* J Glaser, T D Nguyen, J A Anderson, P Liu, F Spiga, J A Millan, D C Morse, and
  S C Glotzer. "Strong scaling of general-purpose molecular dynamics simulations
  on GPUs", Computer Physics Communications 192 (2015) 97--107
-----
notice(2): This system is not compute exclusive, using local rank to select GPUs
HOOMD-blue is running on the following GPU(s):
 [0]            Tesla K20m  13 SM_3.5 @ 0.706 GHz, 4743 MiB DRAM
Ramp16.py:049  |  system = hoomd.init.read_gsd(ramp_file,frame = -1)
notice(2): Group "all" created containing 1004 particles
Ramp16.py:053  |  rigid = hoomd.md.constrain.rigid();
notice(2): constrain.rigid(): Creating 1000 rigid bodies (adding 8000 particles)
Ramp16.py:065  |  nl = hoomd.md.nlist.tree()
-----
You are using tree neighbor lists. Please cite the following:
* M P Howard, J A Anderson, A Nikoubashman, S C Glotzer, and A Z
  Panagiotopoulos. "Efficient neighbor list calculation for molecular simulation
  of colloidal systems using graphics processing units", Computer Physics
  Communications 203 (2016) 45--52
-----
Ramp16.py:067  |  lj = hoomd.md.pair.lj(r_cut = 3.5, nlist=nl)
Ramp16.py:068  |  lj.set_params(mode='shift')
Ramp16.py:072  |  lj.pair_coeff.set('NP','NP', epsilon = 1.0, sigma = 5.0);
Ramp16.py:073  |  lj.pair_coeff.set('M' ,'M' , epsilon = 1.0, sigma = 1.0);
Ramp16.py:074  |  lj.pair_coeff.set('A' ,'A' , epsilon = 1.0, sigma = 1.0);
Ramp16.py:075  |  lj.pair_coeff.set('M' ,'A' , epsilon = 1.0, sigma = 1.0);
Ramp16.py:076  |  lj.pair_coeff.set('NP','M' , epsilon = 1.0, sigma = 3.0);
Ramp16.py:077  |  lj.pair_coeff.set('NP','A' , epsilon = 1.0, sigma = 3.0);
Ramp16.py:081  |  hoomd.md.integrate.mode_standard(dt = 0.005);
Ramp16.py:085  |  nanoparticles = hoomd.group.type(name = 'Nano_Particles', type = 'NP');
notice(2): Group "Nano_Particles" created containing 4 particles
Ramp16.py:086  |  mesogens = hoomd.group.rigid_center();
notice(2): Group "rigid_center" created containing 1000 particles
notice(2): Group "NP_Mes" created containing 1004 particles
Ramp16.py:092  |  npt = hoomd.md.integrate.npt(group = groupNP_mes, kT = temp, tau = 2.5, tauP = 2.5, P = pressure);
Ramp16.py:101  |  log = hoomd.analyze.log(filename = log_file,
                         quantities = ['num_particles',
                                     'ndof',
                                     'translational_ndof',
                                     'rotational_ndof',
                                     'potential_energy',
                                     'kinetic_energy',
                                     'translational_kinetic_energy',
                                     'rotational_kinetic_energy',
                                     'temperature',
                                     'pressure',
                                      'volume'],
                         period = 1e3,
                         overwrite = True);
Ramp16.py:117  |                 group = hoomd.group.all(),
Ramp16.py:115  |  gsd = hoomd.dump.gsd(gsd_file,
               period = 1e3,
               group = hoomd.group.all(),
               overwrite = True); 
Ramp16.py:119  |  meso_gsd = hoomd.dump.gsd(meso_gsd_file,
               period = 1e3,
               group = groupNP_mes,
               overwrite = True); 
Ramp16.py:130  |  hoomd.run(run_time)
notice(2): -- Neighborlist exclusion statistics -- :
notice(2): Particles with 0 exclusions             : 9004
notice(2): Neighbors included by diameter          : no
notice(2): Neighbors excluded when in the same body: yes
** starting run **
Time 00:00:10 | Step 500082 / 595000 | TPS 508.187 | ETA 00:03:06
Time 00:00:20 | Step 506701 / 595000 | TPS 654.355 | ETA 00:02:14
Time 00:00:30 | Step 512401 / 595000 | TPS 565.318 | ETA 00:02:26
Time 00:00:40 | Step 517501 / 595000 | TPS 509.176 | ETA 00:02:32
Time 00:00:50 | Step 521401 / 595000 | TPS 381.102 | ETA 00:03:13
Time 00:01:00 | Step 525301 / 595000 | TPS 380.886 | ETA 00:03:02
Time 00:01:11 | Step 531301 / 595000 | TPS 589.766 | ETA 00:01:48
Time 00:01:21 | Step 537601 / 595000 | TPS 616.387 | ETA 00:01:33
Time 00:01:31 | Step 543931 / 595000 | TPS 632.98 | ETA 00:01:20
Time 00:01:41 | Step 550801 / 595000 | TPS 680.481 | ETA 00:01:04
Time 00:01:51 | Step 557701 / 595000 | TPS 682.664 | ETA 00:00:54
Time 00:02:01 | Step 564601 / 595000 | TPS 682.698 | ETA 00:00:44
Time 00:02:11 | Step 571501 / 595000 | TPS 682.843 | ETA 00:00:34
Time 00:02:21 | Step 578401 / 595000 | TPS 682.613 | ETA 00:00:24
Time 00:02:31 | Step 585301 / 595000 | TPS 682.59 | ETA 00:00:14
Time 00:02:42 | Step 592201 / 595000 | TPS 682.589 | ETA 00:00:04
Time 00:02:46 | Step 595000 / 595000 | TPS 701.792 | ETA 00:00:00
Average TPS: 603.097
---------
-- Neighborlist stats:
0 normal updates / 335 forced updates / 0 dangerous updates
n_neigh_min: 0 / n_neigh_max: 0 / n_neigh_avg: 0
shortest rebuild period: 100
** run complete **
[33mWARNING: Skipping user bind, non existent bind point (file) in container: '/usr/bin/nvidia-smi'
[0m[33mWARNING: Skipping user bind, non existent bind point (file) in container: '/usr/bin/nvidia-debugdump'
[0m[33mWARNING: Skipping user bind, non existent bind point (file) in container: '/usr/bin/nvidia-persistenced'
[0m[33mWARNING: Skipping user bind, non existent bind point (file) in container: '/usr/bin/nvidia-cuda-mps-control'
[0m[33mWARNING: Skipping user bind, non existent bind point (file) in container: '/usr/bin/nvidia-cuda-mps-server'
[0mHOOMD-blue 2.3.5 CUDA (8.0) DOUBLE HPMC_MIXED TBB SSE SSE2 
Compiled: 10/08/18
Copyright 2009-2018 The Regents of the University of Michigan.
-----
You are using HOOMD-blue. Please cite the following:
* J A Anderson, C D Lorenz, and A Travesset. "General purpose molecular dynamics
  simulations fully implemented on graphics processing units", Journal of
  Computational Physics 227 (2008) 5342--5359
* J Glaser, T D Nguyen, J A Anderson, P Liu, F Spiga, J A Millan, D C Morse, and
  S C Glotzer. "Strong scaling of general-purpose molecular dynamics simulations
  on GPUs", Computer Physics Communications 192 (2015) 97--107
-----
notice(2): This system is not compute exclusive, using local rank to select GPUs
HOOMD-blue is running on the following GPU(s):
 [0]            Tesla K20m  13 SM_3.5 @ 0.706 GHz, 4743 MiB DRAM
Ramp18.py:049  |  system = hoomd.init.read_gsd(ramp_file,frame = -1)
notice(2): Group "all" created containing 1004 particles
Ramp18.py:053  |  rigid = hoomd.md.constrain.rigid();
notice(2): constrain.rigid(): Creating 1000 rigid bodies (adding 8000 particles)
Ramp18.py:065  |  nl = hoomd.md.nlist.tree()
-----
You are using tree neighbor lists. Please cite the following:
* M P Howard, J A Anderson, A Nikoubashman, S C Glotzer, and A Z
  Panagiotopoulos. "Efficient neighbor list calculation for molecular simulation
  of colloidal systems using graphics processing units", Computer Physics
  Communications 203 (2016) 45--52
-----
Ramp18.py:067  |  lj = hoomd.md.pair.lj(r_cut = 3.5, nlist=nl)
Ramp18.py:068  |  lj.set_params(mode='shift')
Ramp18.py:072  |  lj.pair_coeff.set('NP','NP', epsilon = 1.0, sigma = 5.0);
Ramp18.py:073  |  lj.pair_coeff.set('M' ,'M' , epsilon = 1.0, sigma = 1.0);
Ramp18.py:074  |  lj.pair_coeff.set('A' ,'A' , epsilon = 1.0, sigma = 1.0);
Ramp18.py:075  |  lj.pair_coeff.set('M' ,'A' , epsilon = 1.0, sigma = 1.0);
Ramp18.py:076  |  lj.pair_coeff.set('NP','M' , epsilon = 1.0, sigma = 3.0);
Ramp18.py:077  |  lj.pair_coeff.set('NP','A' , epsilon = 1.0, sigma = 3.0);
Ramp18.py:081  |  hoomd.md.integrate.mode_standard(dt = 0.005);
Ramp18.py:085  |  nanoparticles = hoomd.group.type(name = 'Nano_Particles', type = 'NP');
notice(2): Group "Nano_Particles" created containing 4 particles
Ramp18.py:086  |  mesogens = hoomd.group.rigid_center();
notice(2): Group "rigid_center" created containing 1000 particles
notice(2): Group "NP_Mes" created containing 1004 particles
Ramp18.py:092  |  npt = hoomd.md.integrate.npt(group = groupNP_mes, kT = temp, tau = 3.0, tauP = 3.0, P = pressure);
Ramp18.py:101  |  log = hoomd.analyze.log(filename = log_file,
                         quantities = ['num_particles',
                                     'ndof',
                                     'translational_ndof',
                                     'rotational_ndof',
                                     'potential_energy',
                                     'kinetic_energy',
                                     'translational_kinetic_energy',
                                     'rotational_kinetic_energy',
                                     'temperature',
                                     'pressure',
                                      'volume'],
                         period = 1e3,
                         overwrite = True);
Ramp18.py:117  |                 group = hoomd.group.all(),
Ramp18.py:115  |  gsd = hoomd.dump.gsd(gsd_file,
               period = 1e3,
               group = hoomd.group.all(),
               overwrite = True); 
Ramp18.py:119  |  meso_gsd = hoomd.dump.gsd(meso_gsd_file,
               period = 1e3,
               group = groupNP_mes,
               overwrite = True); 
Ramp18.py:130  |  hoomd.run(run_time)
notice(2): -- Neighborlist exclusion statistics -- :
notice(2): Particles with 0 exclusions             : 9004
notice(2): Neighbors included by diameter          : no
notice(2): Neighbors excluded when in the same body: yes
** starting run **
Time 00:00:10 | Step 599101 / 694000 | TPS 496.155 | ETA 00:03:11
Time 00:00:20 | Step 606001 / 694000 | TPS 675.358 | ETA 00:02:10
Time 00:00:30 | Step 611701 / 694000 | TPS 566.388 | ETA 00:02:25
Time 00:00:41 | Step 616801 / 694000 | TPS 494.552 | ETA 00:02:36
Time 00:00:51 | Step 620701 / 694000 | TPS 381.342 | ETA 00:03:12
Time 00:01:01 | Step 624601 / 694000 | TPS 381.58 | ETA 00:03:01
Time 00:01:11 | Step 630901 / 694000 | TPS 609.403 | ETA 00:01:43
Time 00:01:22 | Step 637201 / 694000 | TPS 617.278 | ETA 00:01:32
Time 00:01:32 | Step 643801 / 694000 | TPS 640.606 | ETA 00:01:18
Time 00:01:42 | Step 650701 / 694000 | TPS 685.13 | ETA 00:01:03
Time 00:01:52 | Step 657601 / 694000 | TPS 685.039 | ETA 00:00:53
Time 00:02:02 | Step 664501 / 694000 | TPS 684.855 | ETA 00:00:43
Time 00:02:12 | Step 671401 / 694000 | TPS 684.832 | ETA 00:00:32
Time 00:02:22 | Step 678301 / 694000 | TPS 684.888 | ETA 00:00:22
Time 00:02:32 | Step 685201 / 694000 | TPS 684.751 | ETA 00:00:12
Time 00:02:42 | Step 692101 / 694000 | TPS 684.639 | ETA 00:00:02
Time 00:02:45 | Step 694000 / 694000 | TPS 713.279 | ETA 00:00:00
Average TPS: 604.761
---------
-- Neighborlist stats:
0 normal updates / 335 forced updates / 0 dangerous updates
n_neigh_min: 0 / n_neigh_max: 0 / n_neigh_avg: 0
shortest rebuild period: 100
** run complete **
