[33mWARNING: Skipping user bind, non existent bind point (file) in container: '/usr/bin/nvidia-smi'
[0m[33mWARNING: Skipping user bind, non existent bind point (file) in container: '/usr/bin/nvidia-debugdump'
[0m[33mWARNING: Skipping user bind, non existent bind point (file) in container: '/usr/bin/nvidia-persistenced'
[0m[33mWARNING: Skipping user bind, non existent bind point (file) in container: '/usr/bin/nvidia-cuda-mps-control'
[0m[33mWARNING: Skipping user bind, non existent bind point (file) in container: '/usr/bin/nvidia-cuda-mps-server'
[0m**ERROR**: nlist.tree(): Particle 973 is out of bounds (x: -42.9805, y: 7.25099, z: 262.327, fx: -0.931566, fy: 0.741511, fz:9.2374)
HOOMD-blue 2.3.5 CUDA (8.0) DOUBLE HPMC_MIXED TBB SSE SSE2 
Compiled: 10/08/18
Copyright 2009-2018 The Regents of the University of Michigan.
-----
You are using HOOMD-blue. Please cite the following:
* J A Anderson, C D Lorenz, and A Travesset. "General purpose molecular dynamics
  simulations fully implemented on graphics processing units", Journal of
  Computational Physics 227 (2008) 5342--5359
* J Glaser, T D Nguyen, J A Anderson, P Liu, F Spiga, J A Millan, D C Morse, and
  S C Glotzer. "Strong scaling of general-purpose molecular dynamics simulations
  on GPUs", Computer Physics Communications 192 (2015) 97--107
-----
notice(2): This system is not compute exclusive, using local rank to select GPUs
HOOMD-blue is running on the following GPU(s):
 [0]            Tesla K20m  13 SM_3.5 @ 0.706 GHz, 4743 MiB DRAM
Ramp18.py:049  |  system = hoomd.init.read_gsd(ramp_file,frame = -1)
notice(2): Group "all" created containing 1004 particles
Ramp18.py:053  |  rigid = hoomd.md.constrain.rigid();
notice(2): constrain.rigid(): Creating 1000 rigid bodies (adding 8000 particles)
Ramp18.py:065  |  nl = hoomd.md.nlist.tree()
-----
You are using tree neighbor lists. Please cite the following:
* M P Howard, J A Anderson, A Nikoubashman, S C Glotzer, and A Z
  Panagiotopoulos. "Efficient neighbor list calculation for molecular simulation
  of colloidal systems using graphics processing units", Computer Physics
  Communications 203 (2016) 45--52
-----
Ramp18.py:067  |  lj = hoomd.md.pair.lj(r_cut = 3.5, nlist=nl)
Ramp18.py:068  |  lj.set_params(mode='shift')
Ramp18.py:072  |  lj.pair_coeff.set('NP','NP', epsilon = 1.0, sigma = 5.0);
Ramp18.py:073  |  lj.pair_coeff.set('M' ,'M' , epsilon = 1.0, sigma = 1.0);
Ramp18.py:074  |  lj.pair_coeff.set('A' ,'A' , epsilon = 1.0, sigma = 1.0);
Ramp18.py:075  |  lj.pair_coeff.set('M' ,'A' , epsilon = 1.0, sigma = 1.0);
Ramp18.py:076  |  lj.pair_coeff.set('NP','M' , epsilon = 1.0, sigma = 3.0);
Ramp18.py:077  |  lj.pair_coeff.set('NP','A' , epsilon = 1.0, sigma = 3.0);
Ramp18.py:081  |  hoomd.md.integrate.mode_standard(dt = 0.005);
Ramp18.py:085  |  nanoparticles = hoomd.group.type(name = 'Nano_Particles', type = 'NP');
notice(2): Group "Nano_Particles" created containing 4 particles
Ramp18.py:086  |  mesogens = hoomd.group.rigid_center();
notice(2): Group "rigid_center" created containing 1000 particles
notice(2): Group "NP_Mes" created containing 1004 particles
Ramp18.py:092  |  npt = hoomd.md.integrate.npt(group = groupNP_mes, kT = temp, tau = 4.0, tauP = 4.0, P = pressure);
Ramp18.py:101  |  log = hoomd.analyze.log(filename = log_file,
                         quantities = ['num_particles',
                                     'ndof',
                                     'translational_ndof',
                                     'rotational_ndof',
                                     'potential_energy',
                                     'kinetic_energy',
                                     'translational_kinetic_energy',
                                     'rotational_kinetic_energy',
                                     'temperature',
                                     'pressure',
                                      'volume'],
                         period = 1e3,
                         overwrite = True);
Ramp18.py:117  |                 group = hoomd.group.all(),
Ramp18.py:115  |  gsd = hoomd.dump.gsd(gsd_file,
               period = 1e3,
               group = hoomd.group.all(),
               overwrite = True); 
Ramp18.py:119  |  meso_gsd = hoomd.dump.gsd(meso_gsd_file,
               period = 1e3,
               group = groupNP_mes,
               overwrite = True); 
Ramp18.py:130  |  hoomd.run(run_time)
notice(2): -- Neighborlist exclusion statistics -- :
notice(2): Particles with 0 exclusions             : 9004
notice(2): Neighbors included by diameter          : no
notice(2): Neighbors excluded when in the same body: yes
** starting run **
Time 00:00:10 | Step 585239 / 683000 | TPS 223.84 | ETA 00:07:16
Time 00:00:20 | Step 587709 / 683000 | TPS 246.935 | ETA 00:06:25
Time 00:00:30 | Step 590186 / 683000 | TPS 247.671 | ETA 00:06:14
Time 00:00:40 | Step 592606 / 683000 | TPS 241.793 | ETA 00:06:13
Time 00:00:50 | Step 595114 / 683000 | TPS 250.762 | ETA 00:05:50
Time 00:01:00 | Step 597551 / 683000 | TPS 243.638 | ETA 00:05:50
Time 00:01:10 | Step 600022 / 683000 | TPS 246.981 | ETA 00:05:35
Time 00:01:20 | Step 602513 / 683000 | TPS 248.979 | ETA 00:05:23
Time 00:01:30 | Step 604960 / 683000 | TPS 244.589 | ETA 00:05:19
Time 00:01:40 | Step 607443 / 683000 | TPS 248.17 | ETA 00:05:04
Time 00:01:50 | Step 609914 / 683000 | TPS 246.913 | ETA 00:04:55
Time 00:02:00 | Step 612438 / 683000 | TPS 252.238 | ETA 00:04:39
Time 00:02:10 | Step 614970 / 683000 | TPS 253.124 | ETA 00:04:28
Time 00:02:20 | Step 617435 / 683000 | TPS 246.307 | ETA 00:04:26
Time 00:02:30 | Step 619996 / 683000 | TPS 255.945 | ETA 00:04:06
Time 00:02:40 | Step 622524 / 683000 | TPS 252.733 | ETA 00:03:59
Time 00:02:50 | Step 625028 / 683000 | TPS 250.193 | ETA 00:03:51
Time 00:03:00 | Step 627521 / 683000 | TPS 249.243 | ETA 00:03:42
Time 00:03:10 | Step 629983 / 683000 | TPS 246.114 | ETA 00:03:35
Time 00:03:20 | Step 632503 / 683000 | TPS 251.99 | ETA 00:03:20
Time 00:03:30 | Step 634937 / 683000 | TPS 243.384 | ETA 00:03:17
Time 00:03:40 | Step 637416 / 683000 | TPS 247.898 | ETA 00:03:03
Time 00:03:50 | Step 639950 / 683000 | TPS 253.345 | ETA 00:02:49
Time 00:04:00 | Step 642411 / 683000 | TPS 245.936 | ETA 00:02:45
Time 00:04:10 | Step 644975 / 683000 | TPS 256.34 | ETA 00:02:28
Time 00:04:20 | Step 647483 / 683000 | TPS 250.706 | ETA 00:02:21
Time 00:04:30 | Step 649974 / 683000 | TPS 248.928 | ETA 00:02:12
Time 00:04:40 | Step 652459 / 683000 | TPS 248.309 | ETA 00:02:02
Time 00:04:50 | Step 654914 / 683000 | TPS 245.495 | ETA 00:01:54
Time 00:05:00 | Step 657354 / 683000 | TPS 243.808 | ETA 00:01:45
Time 00:05:10 | Step 659827 / 683000 | TPS 247.289 | ETA 00:01:33
Time 00:05:20 | Step 662279 / 683000 | TPS 245.038 | ETA 00:01:24
Time 00:05:30 | Step 664740 / 683000 | TPS 245.996 | ETA 00:01:14
Time 00:05:40 | Step 667279 / 683000 | TPS 253.78 | ETA 00:01:01
Time 00:05:50 | Step 669781 / 683000 | TPS 250.171 | ETA 00:00:52
Traceback (most recent call last):
  File "Ramp18.py", line 130, in <module>
    hoomd.run(run_time)
  File "/usr/local/lib/python3.5/dist-packages/hoomd/__init__.py", line 194, in run
    context.current.system.run(int(tsteps), callback_period, callback, limit_hours, int(limit_multiple));
RuntimeError: Error updating neighborlist
