[33mWARNING: Skipping user bind, non existent bind point (file) in container: '/usr/bin/nvidia-smi'
[0m[33mWARNING: Skipping user bind, non existent bind point (file) in container: '/usr/bin/nvidia-debugdump'
[0m[33mWARNING: Skipping user bind, non existent bind point (file) in container: '/usr/bin/nvidia-persistenced'
[0m[33mWARNING: Skipping user bind, non existent bind point (file) in container: '/usr/bin/nvidia-cuda-mps-control'
[0m[33mWARNING: Skipping user bind, non existent bind point (file) in container: '/usr/bin/nvidia-cuda-mps-server'
[0mHOOMD-blue 2.3.5 CUDA (8.0) DOUBLE HPMC_MIXED TBB SSE SSE2 
Compiled: 10/08/18
Copyright 2009-2018 The Regents of the University of Michigan.
-----
You are using HOOMD-blue. Please cite the following:
* J A Anderson, C D Lorenz, and A Travesset. "General purpose molecular dynamics
  simulations fully implemented on graphics processing units", Journal of
  Computational Physics 227 (2008) 5342--5359
* J Glaser, T D Nguyen, J A Anderson, P Liu, F Spiga, J A Millan, D C Morse, and
  S C Glotzer. "Strong scaling of general-purpose molecular dynamics simulations
  on GPUs", Computer Physics Communications 192 (2015) 97--107
-----
notice(2): This system is not compute exclusive, using local rank to select GPUs
HOOMD-blue is running on the following GPU(s):
 [0]            Tesla K20m  13 SM_3.5 @ 0.758 GHz, 4743 MiB DRAM
Ramp18.py:049  |  system = hoomd.init.read_gsd(ramp_file,frame = -1)
notice(2): Group "all" created containing 1004 particles
Ramp18.py:053  |  rigid = hoomd.md.constrain.rigid();
notice(2): constrain.rigid(): Creating 1000 rigid bodies (adding 8000 particles)
Ramp18.py:065  |  nl = hoomd.md.nlist.tree()
-----
You are using tree neighbor lists. Please cite the following:
* M P Howard, J A Anderson, A Nikoubashman, S C Glotzer, and A Z
  Panagiotopoulos. "Efficient neighbor list calculation for molecular simulation
  of colloidal systems using graphics processing units", Computer Physics
  Communications 203 (2016) 45--52
-----
Ramp18.py:067  |  lj = hoomd.md.pair.lj(r_cut = 3.5, nlist=nl)
Ramp18.py:068  |  lj.set_params(mode='shift')
Ramp18.py:072  |  lj.pair_coeff.set('NP','NP', epsilon = 1.0, sigma = 5.0);
Ramp18.py:073  |  lj.pair_coeff.set('M' ,'M' , epsilon = 1.0, sigma = 1.0);
Ramp18.py:074  |  lj.pair_coeff.set('A' ,'A' , epsilon = 1.0, sigma = 1.0);
Ramp18.py:075  |  lj.pair_coeff.set('M' ,'A' , epsilon = 1.0, sigma = 1.0);
Ramp18.py:076  |  lj.pair_coeff.set('NP','M' , epsilon = 1.0, sigma = 3.0);
Ramp18.py:077  |  lj.pair_coeff.set('NP','A' , epsilon = 1.0, sigma = 3.0);
Ramp18.py:081  |  hoomd.md.integrate.mode_standard(dt = 0.005);
Ramp18.py:085  |  nanoparticles = hoomd.group.type(name = 'Nano_Particles', type = 'NP');
notice(2): Group "Nano_Particles" created containing 4 particles
Ramp18.py:086  |  mesogens = hoomd.group.rigid_center();
notice(2): Group "rigid_center" created containing 1000 particles
notice(2): Group "NP_Mes" created containing 1004 particles
Ramp18.py:092  |  npt = hoomd.md.integrate.npt(group = groupNP_mes, kT = temp, tau = 4.0, tauP = 4.0, P = pressure);
Ramp18.py:101  |  log = hoomd.analyze.log(filename = log_file,
                         quantities = ['num_particles',
                                     'ndof',
                                     'translational_ndof',
                                     'rotational_ndof',
                                     'potential_energy',
                                     'kinetic_energy',
                                     'translational_kinetic_energy',
                                     'rotational_kinetic_energy',
                                     'temperature',
                                     'pressure',
                                      'volume'],
                         period = 1e3,
                         overwrite = True);
Ramp18.py:117  |                 group = hoomd.group.all(),
Ramp18.py:115  |  gsd = hoomd.dump.gsd(gsd_file,
               period = 1e3,
               group = hoomd.group.all(),
               overwrite = True); 
Ramp18.py:119  |  meso_gsd = hoomd.dump.gsd(meso_gsd_file,
               period = 1e3,
               group = groupNP_mes,
               overwrite = True); 
Ramp18.py:130  |  hoomd.run(run_time)
notice(2): -- Neighborlist exclusion statistics -- :
notice(2): Particles with 0 exclusions             : 9004
notice(2): Neighbors included by diameter          : no
notice(2): Neighbors excluded when in the same body: yes
** starting run **
Time 00:00:10 | Step 596398 / 694000 | TPS 239.732 | ETA 00:06:47
Time 00:00:20 | Step 599023 / 694000 | TPS 262.338 | ETA 00:06:02
Time 00:00:30 | Step 601724 / 694000 | TPS 270.058 | ETA 00:05:41
Time 00:00:40 | Step 604364 / 694000 | TPS 263.939 | ETA 00:05:39
Time 00:00:50 | Step 606996 / 694000 | TPS 263.186 | ETA 00:05:30
Time 00:01:00 | Step 609616 / 694000 | TPS 261.964 | ETA 00:05:22
Time 00:01:10 | Step 612308 / 694000 | TPS 269.141 | ETA 00:05:03
Time 00:01:20 | Step 614985 / 694000 | TPS 267.536 | ETA 00:04:55
Time 00:01:30 | Step 617610 / 694000 | TPS 262.442 | ETA 00:04:51
Time 00:01:40 | Step 620242 / 694000 | TPS 263.185 | ETA 00:04:40
Time 00:01:50 | Step 622866 / 694000 | TPS 262.4 | ETA 00:04:31
Time 00:02:00 | Step 625519 / 694000 | TPS 265.171 | ETA 00:04:18
Time 00:02:10 | Step 628143 / 694000 | TPS 262.194 | ETA 00:04:11
Time 00:02:20 | Step 630806 / 694000 | TPS 266.281 | ETA 00:03:57
Time 00:02:30 | Step 633444 / 694000 | TPS 263.674 | ETA 00:03:49
Time 00:02:40 | Step 636061 / 694000 | TPS 261.58 | ETA 00:03:41
Time 00:02:50 | Step 638612 / 694000 | TPS 254.992 | ETA 00:03:37
Time 00:03:00 | Step 641302 / 694000 | TPS 268.995 | ETA 00:03:15
Time 00:03:10 | Step 643943 / 694000 | TPS 263.913 | ETA 00:03:09
Time 00:03:20 | Step 646517 / 694000 | TPS 257.394 | ETA 00:03:04
Time 00:03:30 | Step 649109 / 694000 | TPS 259.004 | ETA 00:02:53
Time 00:03:40 | Step 651649 / 694000 | TPS 253.793 | ETA 00:02:46
Time 00:03:50 | Step 654283 / 694000 | TPS 263.21 | ETA 00:02:30
Time 00:04:00 | Step 656853 / 694000 | TPS 256.947 | ETA 00:02:24
Time 00:04:10 | Step 659498 / 694000 | TPS 264.494 | ETA 00:02:10
Time 00:04:20 | Step 662101 / 694000 | TPS 260.141 | ETA 00:02:02
Time 00:04:30 | Step 664739 / 694000 | TPS 263.602 | ETA 00:01:51
Time 00:04:40 | Step 667296 / 694000 | TPS 255.506 | ETA 00:01:44
Time 00:04:50 | Step 669880 / 694000 | TPS 258.398 | ETA 00:01:33
Time 00:05:00 | Step 672499 / 694000 | TPS 261.738 | ETA 00:01:22
Time 00:05:10 | Step 675118 / 694000 | TPS 261.842 | ETA 00:01:12
Time 00:05:20 | Step 677738 / 694000 | TPS 261.914 | ETA 00:01:02
Time 00:05:30 | Step 680385 / 694000 | TPS 264.54 | ETA 00:00:51
Time 00:05:40 | Step 683060 / 694000 | TPS 267.435 | ETA 00:00:40
Time 00:05:50 | Step 685738 / 694000 | TPS 267.583 | ETA 00:00:30
Time 00:06:00 | Step 692588 / 694000 | TPS 685 | ETA 00:00:02
Time 00:06:02 | Step 694000 / 694000 | TPS 668.048 | ETA 00:00:00
Average TPS: 276.053
---------
-- Neighborlist stats:
36097 normal updates / 335 forced updates / 0 dangerous updates
n_neigh_min: 0 / n_neigh_max: 0 / n_neigh_avg: 0
shortest rebuild period: 1
** run complete **
