[33mWARNING: Skipping user bind, non existent bind point (file) in container: '/usr/bin/nvidia-smi'
[0m[33mWARNING: Skipping user bind, non existent bind point (file) in container: '/usr/bin/nvidia-debugdump'
[0m[33mWARNING: Skipping user bind, non existent bind point (file) in container: '/usr/bin/nvidia-persistenced'
[0m[33mWARNING: Skipping user bind, non existent bind point (file) in container: '/usr/bin/nvidia-cuda-mps-control'
[0m[33mWARNING: Skipping user bind, non existent bind point (file) in container: '/usr/bin/nvidia-cuda-mps-server'
[0mHOOMD-blue 2.3.5 CUDA (8.0) DOUBLE HPMC_MIXED TBB SSE SSE2 
Compiled: 10/08/18
Copyright 2009-2018 The Regents of the University of Michigan.
-----
You are using HOOMD-blue. Please cite the following:
* J A Anderson, C D Lorenz, and A Travesset. "General purpose molecular dynamics
  simulations fully implemented on graphics processing units", Journal of
  Computational Physics 227 (2008) 5342--5359
* J Glaser, T D Nguyen, J A Anderson, P Liu, F Spiga, J A Millan, D C Morse, and
  S C Glotzer. "Strong scaling of general-purpose molecular dynamics simulations
  on GPUs", Computer Physics Communications 192 (2015) 97--107
-----
notice(2): This system is not compute exclusive, using local rank to select GPUs
HOOMD-blue is running on the following GPU(s):
 [0]            Tesla K20m  13 SM_3.5 @ 0.706 GHz, 4743 MiB DRAM
Ramp08.py:049  |  system = hoomd.init.read_gsd(ramp_file,frame = -1)
notice(2): Group "all" created containing 1004 particles
Ramp08.py:053  |  rigid = hoomd.md.constrain.rigid();
notice(2): constrain.rigid(): Creating 1000 rigid bodies (adding 8000 particles)
Ramp08.py:065  |  nl = hoomd.md.nlist.tree()
-----
You are using tree neighbor lists. Please cite the following:
* M P Howard, J A Anderson, A Nikoubashman, S C Glotzer, and A Z
  Panagiotopoulos. "Efficient neighbor list calculation for molecular simulation
  of colloidal systems using graphics processing units", Computer Physics
  Communications 203 (2016) 45--52
-----
Ramp08.py:067  |  lj = hoomd.md.pair.lj(r_cut = 3.5, nlist=nl)
Ramp08.py:068  |  lj.set_params(mode='shift')
Ramp08.py:072  |  lj.pair_coeff.set('NP','NP', epsilon = 1.0, sigma = 5.0);
Ramp08.py:073  |  lj.pair_coeff.set('M' ,'M' , epsilon = 1.0, sigma = 1.0);
Ramp08.py:074  |  lj.pair_coeff.set('A' ,'A' , epsilon = 1.0, sigma = 1.0);
Ramp08.py:075  |  lj.pair_coeff.set('M' ,'A' , epsilon = 1.0, sigma = 1.0);
Ramp08.py:076  |  lj.pair_coeff.set('NP','M' , epsilon = 1.0, sigma = 3.0);
Ramp08.py:077  |  lj.pair_coeff.set('NP','A' , epsilon = 1.0, sigma = 3.0);
Ramp08.py:081  |  hoomd.md.integrate.mode_standard(dt = 0.005);
Ramp08.py:085  |  nanoparticles = hoomd.group.type(name = 'Nano_Particles', type = 'NP');
notice(2): Group "Nano_Particles" created containing 4 particles
Ramp08.py:086  |  mesogens = hoomd.group.rigid_center();
notice(2): Group "rigid_center" created containing 1000 particles
notice(2): Group "NP_Mes" created containing 1004 particles
Ramp08.py:092  |  npt = hoomd.md.integrate.npt(group = groupNP_mes, kT = temp, tau = 1.0, tauP = 1.0, P = pressure);
Ramp08.py:101  |  log = hoomd.analyze.log(filename = log_file,
                         quantities = ['num_particles',
                                     'ndof',
                                     'translational_ndof',
                                     'rotational_ndof',
                                     'potential_energy',
                                     'kinetic_energy',
                                     'translational_kinetic_energy',
                                     'rotational_kinetic_energy',
                                     'temperature',
                                     'pressure',
                                      'volume'],
                         period = 1e3,
                         overwrite = True);
Ramp08.py:117  |                 group = hoomd.group.all(),
Ramp08.py:115  |  gsd = hoomd.dump.gsd(gsd_file,
               period = 1e3,
               group = hoomd.group.all(),
               overwrite = True); 
Ramp08.py:119  |  meso_gsd = hoomd.dump.gsd(meso_gsd_file,
               period = 1e3,
               group = groupNP_mes,
               overwrite = True); 
Ramp08.py:130  |  hoomd.run(run_time)
notice(2): -- Neighborlist exclusion statistics -- :
notice(2): Particles with 0 exclusions             : 9004
notice(2): Neighbors included by diameter          : no
notice(2): Neighbors excluded when in the same body: yes
** starting run **
Time 00:00:10 | Step 102260 / 199000 | TPS 325.922 | ETA 00:04:56
Time 00:00:20 | Step 105791 / 199000 | TPS 352.95 | ETA 00:04:24
Time 00:00:30 | Step 109273 / 199000 | TPS 348.186 | ETA 00:04:17
Time 00:00:40 | Step 112664 / 199000 | TPS 339.089 | ETA 00:04:14
Time 00:00:50 | Step 116089 / 199000 | TPS 342.368 | ETA 00:04:02
Time 00:01:00 | Step 119544 / 199000 | TPS 345.396 | ETA 00:03:50
Time 00:01:10 | Step 122963 / 199000 | TPS 341.791 | ETA 00:03:42
Time 00:01:20 | Step 126315 / 199000 | TPS 334.987 | ETA 00:03:36
Time 00:01:30 | Step 129622 / 199000 | TPS 330.698 | ETA 00:03:29
Time 00:01:40 | Step 132908 / 199000 | TPS 328.586 | ETA 00:03:21
Time 00:01:50 | Step 136236 / 199000 | TPS 332.633 | ETA 00:03:08
Time 00:02:00 | Step 139522 / 199000 | TPS 328.421 | ETA 00:03:01
Time 00:02:10 | Step 142772 / 199000 | TPS 324.91 | ETA 00:02:53
Time 00:02:20 | Step 146015 / 199000 | TPS 324.273 | ETA 00:02:43
Time 00:02:30 | Step 149255 / 199000 | TPS 323.992 | ETA 00:02:33
Time 00:02:40 | Step 152484 / 199000 | TPS 322.706 | ETA 00:02:24
Time 00:02:50 | Step 155729 / 199000 | TPS 324.487 | ETA 00:02:13
Time 00:03:00 | Step 158963 / 199000 | TPS 323.356 | ETA 00:02:03
Time 00:03:10 | Step 162207 / 199000 | TPS 324.396 | ETA 00:01:53
Time 00:03:20 | Step 165504 / 199000 | TPS 329.656 | ETA 00:01:41
Time 00:03:30 | Step 168781 / 199000 | TPS 327.508 | ETA 00:01:32
Time 00:03:40 | Step 172058 / 199000 | TPS 327.629 | ETA 00:01:22
Time 00:03:50 | Step 175273 / 199000 | TPS 321.349 | ETA 00:01:13
Time 00:04:00 | Step 178557 / 199000 | TPS 328.315 | ETA 00:01:02
Time 00:04:10 | Step 181861 / 199000 | TPS 330.193 | ETA 00:00:51
Time 00:04:20 | Step 185163 / 199000 | TPS 330.017 | ETA 00:00:41
Time 00:04:30 | Step 188459 / 199000 | TPS 329.564 | ETA 00:00:31
Time 00:04:40 | Step 191826 / 199000 | TPS 336.698 | ETA 00:00:21
Time 00:04:50 | Step 195188 / 199000 | TPS 336.179 | ETA 00:00:11
Time 00:05:00 | Step 198512 / 199000 | TPS 332.378 | ETA 00:00:01
Time 00:05:01 | Step 199000 / 199000 | TPS 328.652 | ETA 00:00:00
Average TPS: 331.607
---------
-- Neighborlist stats:
39578 normal updates / 335 forced updates / 0 dangerous updates
n_neigh_min: 19 / n_neigh_max: 117 / n_neigh_avg: 87.6319
shortest rebuild period: 2
** run complete **
[33mWARNING: Skipping user bind, non existent bind point (file) in container: '/usr/bin/nvidia-smi'
[0m[33mWARNING: Skipping user bind, non existent bind point (file) in container: '/usr/bin/nvidia-debugdump'
[0m[33mWARNING: Skipping user bind, non existent bind point (file) in container: '/usr/bin/nvidia-persistenced'
[0m[33mWARNING: Skipping user bind, non existent bind point (file) in container: '/usr/bin/nvidia-cuda-mps-control'
[0m[33mWARNING: Skipping user bind, non existent bind point (file) in container: '/usr/bin/nvidia-cuda-mps-server'
[0mHOOMD-blue 2.3.5 CUDA (8.0) DOUBLE HPMC_MIXED TBB SSE SSE2 
Compiled: 10/08/18
Copyright 2009-2018 The Regents of the University of Michigan.
-----
You are using HOOMD-blue. Please cite the following:
* J A Anderson, C D Lorenz, and A Travesset. "General purpose molecular dynamics
  simulations fully implemented on graphics processing units", Journal of
  Computational Physics 227 (2008) 5342--5359
* J Glaser, T D Nguyen, J A Anderson, P Liu, F Spiga, J A Millan, D C Morse, and
  S C Glotzer. "Strong scaling of general-purpose molecular dynamics simulations
  on GPUs", Computer Physics Communications 192 (2015) 97--107
-----
notice(2): This system is not compute exclusive, using local rank to select GPUs
HOOMD-blue is running on the following GPU(s):
 [0]            Tesla K20m  13 SM_3.5 @ 0.706 GHz, 4743 MiB DRAM
Ramp10.py:049  |  system = hoomd.init.read_gsd(ramp_file,frame = -1)
notice(2): Group "all" created containing 1004 particles
Ramp10.py:053  |  rigid = hoomd.md.constrain.rigid();
notice(2): constrain.rigid(): Creating 1000 rigid bodies (adding 8000 particles)
Ramp10.py:065  |  nl = hoomd.md.nlist.tree()
-----
You are using tree neighbor lists. Please cite the following:
* M P Howard, J A Anderson, A Nikoubashman, S C Glotzer, and A Z
  Panagiotopoulos. "Efficient neighbor list calculation for molecular simulation
  of colloidal systems using graphics processing units", Computer Physics
  Communications 203 (2016) 45--52
-----
Ramp10.py:067  |  lj = hoomd.md.pair.lj(r_cut = 3.5, nlist=nl)
Ramp10.py:068  |  lj.set_params(mode='shift')
Ramp10.py:072  |  lj.pair_coeff.set('NP','NP', epsilon = 1.0, sigma = 5.0);
Ramp10.py:073  |  lj.pair_coeff.set('M' ,'M' , epsilon = 1.0, sigma = 1.0);
Ramp10.py:074  |  lj.pair_coeff.set('A' ,'A' , epsilon = 1.0, sigma = 1.0);
Ramp10.py:075  |  lj.pair_coeff.set('M' ,'A' , epsilon = 1.0, sigma = 1.0);
Ramp10.py:076  |  lj.pair_coeff.set('NP','M' , epsilon = 1.0, sigma = 3.0);
Ramp10.py:077  |  lj.pair_coeff.set('NP','A' , epsilon = 1.0, sigma = 3.0);
Ramp10.py:081  |  hoomd.md.integrate.mode_standard(dt = 0.005);
Ramp10.py:085  |  nanoparticles = hoomd.group.type(name = 'Nano_Particles', type = 'NP');
notice(2): Group "Nano_Particles" created containing 4 particles
Ramp10.py:086  |  mesogens = hoomd.group.rigid_center();
notice(2): Group "rigid_center" created containing 1000 particles
notice(2): Group "NP_Mes" created containing 1004 particles
Ramp10.py:092  |  npt = hoomd.md.integrate.npt(group = groupNP_mes, kT = temp, tau = 1.5, tauP = 1.5, P = pressure);
Ramp10.py:101  |  log = hoomd.analyze.log(filename = log_file,
                         quantities = ['num_particles',
                                     'ndof',
                                     'translational_ndof',
                                     'rotational_ndof',
                                     'potential_energy',
                                     'kinetic_energy',
                                     'translational_kinetic_energy',
                                     'rotational_kinetic_energy',
                                     'temperature',
                                     'pressure',
                                      'volume'],
                         period = 1e3,
                         overwrite = True);
Ramp10.py:117  |                 group = hoomd.group.all(),
Ramp10.py:115  |  gsd = hoomd.dump.gsd(gsd_file,
               period = 1e3,
               group = hoomd.group.all(),
               overwrite = True); 
Ramp10.py:119  |  meso_gsd = hoomd.dump.gsd(meso_gsd_file,
               period = 1e3,
               group = groupNP_mes,
               overwrite = True); 
Ramp10.py:130  |  hoomd.run(run_time)
notice(2): -- Neighborlist exclusion statistics -- :
notice(2): Particles with 0 exclusions             : 9004
notice(2): Neighbors included by diameter          : no
notice(2): Neighbors excluded when in the same body: yes
** starting run **
Time 00:00:10 | Step 200993 / 298000 | TPS 299.121 | ETA 00:05:24
Time 00:00:20 | Step 204266 / 298000 | TPS 327.142 | ETA 00:04:46
Time 00:00:30 | Step 207523 / 298000 | TPS 325.551 | ETA 00:04:37
Time 00:00:40 | Step 210750 / 298000 | TPS 322.527 | ETA 00:04:30
Time 00:00:50 | Step 214023 / 298000 | TPS 327.288 | ETA 00:04:16
Time 00:01:00 | Step 217223 / 298000 | TPS 319.799 | ETA 00:04:12
Time 00:01:10 | Step 220453 / 298000 | TPS 322.801 | ETA 00:04:00
Time 00:01:20 | Step 223577 / 298000 | TPS 312.307 | ETA 00:03:58
Time 00:01:30 | Step 226758 / 298000 | TPS 317.923 | ETA 00:03:44
Time 00:01:40 | Step 230034 / 298000 | TPS 327.541 | ETA 00:03:27
Time 00:01:50 | Step 233208 / 298000 | TPS 317.198 | ETA 00:03:24
Time 00:02:00 | Step 236296 / 298000 | TPS 308.752 | ETA 00:03:19
Time 00:02:10 | Step 239484 / 298000 | TPS 318.797 | ETA 00:03:03
Time 00:02:20 | Step 242683 / 298000 | TPS 319.834 | ETA 00:02:52
Time 00:02:30 | Step 245803 / 298000 | TPS 311.836 | ETA 00:02:47
Time 00:02:40 | Step 248919 / 298000 | TPS 311.593 | ETA 00:02:37
Time 00:02:50 | Step 252111 / 298000 | TPS 319.042 | ETA 00:02:23
Time 00:03:00 | Step 255214 / 298000 | TPS 310.288 | ETA 00:02:17
Time 00:03:10 | Step 258336 / 298000 | TPS 312.162 | ETA 00:02:07
Time 00:03:20 | Step 261459 / 298000 | TPS 312.186 | ETA 00:01:57
Time 00:03:30 | Step 264628 / 298000 | TPS 316.881 | ETA 00:01:45
Time 00:03:40 | Step 267799 / 298000 | TPS 317.002 | ETA 00:01:35
Time 00:03:50 | Step 270918 / 298000 | TPS 311.898 | ETA 00:01:26
Time 00:04:00 | Step 274117 / 298000 | TPS 319.871 | ETA 00:01:14
Time 00:04:10 | Step 277222 / 298000 | TPS 310.46 | ETA 00:01:06
Time 00:04:20 | Step 280364 / 298000 | TPS 314.157 | ETA 00:00:56
Time 00:04:30 | Step 283455 / 298000 | TPS 308.959 | ETA 00:00:47
Time 00:04:40 | Step 286582 / 298000 | TPS 312.584 | ETA 00:00:36
Time 00:04:50 | Step 289737 / 298000 | TPS 315.451 | ETA 00:00:26
Time 00:05:00 | Step 292840 / 298000 | TPS 310.151 | ETA 00:00:16
Time 00:05:10 | Step 295900 / 298000 | TPS 305.995 | ETA 00:00:06
Time 00:05:17 | Step 298000 / 298000 | TPS 310.123 | ETA 00:00:00
Average TPS: 315.594
---------
-- Neighborlist stats:
39610 normal updates / 335 forced updates / 0 dangerous updates
n_neigh_min: 42 / n_neigh_max: 132 / n_neigh_avg: 96.1784
shortest rebuild period: 2
** run complete **
[33mWARNING: Skipping user bind, non existent bind point (file) in container: '/usr/bin/nvidia-smi'
[0m[33mWARNING: Skipping user bind, non existent bind point (file) in container: '/usr/bin/nvidia-debugdump'
[0m[33mWARNING: Skipping user bind, non existent bind point (file) in container: '/usr/bin/nvidia-persistenced'
[0m[33mWARNING: Skipping user bind, non existent bind point (file) in container: '/usr/bin/nvidia-cuda-mps-control'
[0m[33mWARNING: Skipping user bind, non existent bind point (file) in container: '/usr/bin/nvidia-cuda-mps-server'
[0mHOOMD-blue 2.3.5 CUDA (8.0) DOUBLE HPMC_MIXED TBB SSE SSE2 
Compiled: 10/08/18
Copyright 2009-2018 The Regents of the University of Michigan.
-----
You are using HOOMD-blue. Please cite the following:
* J A Anderson, C D Lorenz, and A Travesset. "General purpose molecular dynamics
  simulations fully implemented on graphics processing units", Journal of
  Computational Physics 227 (2008) 5342--5359
* J Glaser, T D Nguyen, J A Anderson, P Liu, F Spiga, J A Millan, D C Morse, and
  S C Glotzer. "Strong scaling of general-purpose molecular dynamics simulations
  on GPUs", Computer Physics Communications 192 (2015) 97--107
-----
notice(2): This system is not compute exclusive, using local rank to select GPUs
HOOMD-blue is running on the following GPU(s):
 [0]            Tesla K20m  13 SM_3.5 @ 0.706 GHz, 4743 MiB DRAM
Ramp12.py:049  |  system = hoomd.init.read_gsd(ramp_file,frame = -1)
notice(2): Group "all" created containing 1004 particles
Ramp12.py:053  |  rigid = hoomd.md.constrain.rigid();
notice(2): constrain.rigid(): Creating 1000 rigid bodies (adding 8000 particles)
Ramp12.py:065  |  nl = hoomd.md.nlist.tree()
-----
You are using tree neighbor lists. Please cite the following:
* M P Howard, J A Anderson, A Nikoubashman, S C Glotzer, and A Z
  Panagiotopoulos. "Efficient neighbor list calculation for molecular simulation
  of colloidal systems using graphics processing units", Computer Physics
  Communications 203 (2016) 45--52
-----
Ramp12.py:067  |  lj = hoomd.md.pair.lj(r_cut = 3.5, nlist=nl)
Ramp12.py:068  |  lj.set_params(mode='shift')
Ramp12.py:072  |  lj.pair_coeff.set('NP','NP', epsilon = 1.0, sigma = 5.0);
Ramp12.py:073  |  lj.pair_coeff.set('M' ,'M' , epsilon = 1.0, sigma = 1.0);
Ramp12.py:074  |  lj.pair_coeff.set('A' ,'A' , epsilon = 1.0, sigma = 1.0);
Ramp12.py:075  |  lj.pair_coeff.set('M' ,'A' , epsilon = 1.0, sigma = 1.0);
Ramp12.py:076  |  lj.pair_coeff.set('NP','M' , epsilon = 1.0, sigma = 3.0);
Ramp12.py:077  |  lj.pair_coeff.set('NP','A' , epsilon = 1.0, sigma = 3.0);
Ramp12.py:081  |  hoomd.md.integrate.mode_standard(dt = 0.005);
Ramp12.py:085  |  nanoparticles = hoomd.group.type(name = 'Nano_Particles', type = 'NP');
notice(2): Group "Nano_Particles" created containing 4 particles
Ramp12.py:086  |  mesogens = hoomd.group.rigid_center();
notice(2): Group "rigid_center" created containing 1000 particles
notice(2): Group "NP_Mes" created containing 1004 particles
Ramp12.py:092  |  npt = hoomd.md.integrate.npt(group = groupNP_mes, kT = temp, tau = 1.5, tauP = 1.5, P = pressure);
Ramp12.py:101  |  log = hoomd.analyze.log(filename = log_file,
                         quantities = ['num_particles',
                                     'ndof',
                                     'translational_ndof',
                                     'rotational_ndof',
                                     'potential_energy',
                                     'kinetic_energy',
                                     'translational_kinetic_energy',
                                     'rotational_kinetic_energy',
                                     'temperature',
                                     'pressure',
                                      'volume'],
                         period = 1e3,
                         overwrite = True);
Ramp12.py:117  |                 group = hoomd.group.all(),
Ramp12.py:115  |  gsd = hoomd.dump.gsd(gsd_file,
               period = 1e3,
               group = hoomd.group.all(),
               overwrite = True); 
Ramp12.py:119  |  meso_gsd = hoomd.dump.gsd(meso_gsd_file,
               period = 1e3,
               group = groupNP_mes,
               overwrite = True); 
Ramp12.py:130  |  hoomd.run(run_time)
notice(2): -- Neighborlist exclusion statistics -- :
notice(2): Particles with 0 exclusions             : 9004
notice(2): Neighbors included by diameter          : no
notice(2): Neighbors excluded when in the same body: yes
** starting run **
Time 00:00:10 | Step 299862 / 397000 | TPS 286.095 | ETA 00:05:39
Time 00:00:20 | Step 303014 / 397000 | TPS 315.197 | ETA 00:04:58
Time 00:00:30 | Step 306193 / 397000 | TPS 317.897 | ETA 00:04:45
Time 00:00:40 | Step 309326 / 397000 | TPS 313.256 | ETA 00:04:39
Time 00:00:50 | Step 312418 / 397000 | TPS 309.099 | ETA 00:04:33
Time 00:01:00 | Step 315542 / 397000 | TPS 312.377 | ETA 00:04:20
Time 00:01:10 | Step 318680 / 397000 | TPS 313.62 | ETA 00:04:09
Time 00:01:20 | Step 321745 / 397000 | TPS 306.341 | ETA 00:04:05
Time 00:01:30 | Step 324831 / 397000 | TPS 308.546 | ETA 00:03:53
Time 00:01:40 | Step 327884 / 397000 | TPS 305.24 | ETA 00:03:46
Time 00:01:50 | Step 331018 / 397000 | TPS 313.383 | ETA 00:03:30
Time 00:02:00 | Step 334119 / 397000 | TPS 310.089 | ETA 00:03:22
Time 00:02:10 | Step 337157 / 397000 | TPS 303.697 | ETA 00:03:17
Time 00:02:20 | Step 340218 / 397000 | TPS 305.955 | ETA 00:03:05
Time 00:02:30 | Step 343215 / 397000 | TPS 299.61 | ETA 00:02:59
Time 00:02:40 | Step 346200 / 397000 | TPS 298.469 | ETA 00:02:50
Time 00:02:50 | Step 349147 / 397000 | TPS 294.634 | ETA 00:02:42
Time 00:03:00 | Step 352173 / 397000 | TPS 302.424 | ETA 00:02:28
Time 00:03:10 | Step 355196 / 397000 | TPS 302.13 | ETA 00:02:18
Time 00:03:20 | Step 358191 / 397000 | TPS 299.329 | ETA 00:02:09
Time 00:03:30 | Step 361173 / 397000 | TPS 298.073 | ETA 00:02:00
Time 00:03:40 | Step 364197 / 397000 | TPS 302.215 | ETA 00:01:48
Time 00:03:50 | Step 367206 / 397000 | TPS 300.881 | ETA 00:01:39
Time 00:04:00 | Step 370179 / 397000 | TPS 297.288 | ETA 00:01:30
Time 00:04:10 | Step 373111 / 397000 | TPS 293.195 | ETA 00:01:21
Time 00:04:20 | Step 376080 / 397000 | TPS 296.764 | ETA 00:01:10
Time 00:04:30 | Step 379071 / 397000 | TPS 298.964 | ETA 00:00:59
Time 00:04:40 | Step 382024 / 397000 | TPS 295.185 | ETA 00:00:50
Time 00:04:50 | Step 385034 / 397000 | TPS 300.971 | ETA 00:00:39
Time 00:05:00 | Step 388011 / 397000 | TPS 297.647 | ETA 00:00:30
Time 00:05:10 | Step 391007 / 397000 | TPS 299.421 | ETA 00:00:20
Time 00:05:20 | Step 394001 / 397000 | TPS 299.191 | ETA 00:00:10
Time 00:05:30 | Step 397000 / 397000 | TPS 305.288 | ETA 00:00:00
Average TPS: 303.104
---------
-- Neighborlist stats:
39415 normal updates / 335 forced updates / 0 dangerous updates
n_neigh_min: 33 / n_neigh_max: 146 / n_neigh_avg: 105.575
shortest rebuild period: 2
** run complete **
[33mWARNING: Skipping user bind, non existent bind point (file) in container: '/usr/bin/nvidia-smi'
[0m[33mWARNING: Skipping user bind, non existent bind point (file) in container: '/usr/bin/nvidia-debugdump'
[0m[33mWARNING: Skipping user bind, non existent bind point (file) in container: '/usr/bin/nvidia-persistenced'
[0m[33mWARNING: Skipping user bind, non existent bind point (file) in container: '/usr/bin/nvidia-cuda-mps-control'
[0m[33mWARNING: Skipping user bind, non existent bind point (file) in container: '/usr/bin/nvidia-cuda-mps-server'
[0mHOOMD-blue 2.3.5 CUDA (8.0) DOUBLE HPMC_MIXED TBB SSE SSE2 
Compiled: 10/08/18
Copyright 2009-2018 The Regents of the University of Michigan.
-----
You are using HOOMD-blue. Please cite the following:
* J A Anderson, C D Lorenz, and A Travesset. "General purpose molecular dynamics
  simulations fully implemented on graphics processing units", Journal of
  Computational Physics 227 (2008) 5342--5359
* J Glaser, T D Nguyen, J A Anderson, P Liu, F Spiga, J A Millan, D C Morse, and
  S C Glotzer. "Strong scaling of general-purpose molecular dynamics simulations
  on GPUs", Computer Physics Communications 192 (2015) 97--107
-----
notice(2): This system is not compute exclusive, using local rank to select GPUs
HOOMD-blue is running on the following GPU(s):
 [0]            Tesla K20m  13 SM_3.5 @ 0.706 GHz, 4743 MiB DRAM
Ramp14.py:049  |  system = hoomd.init.read_gsd(ramp_file,frame = -1)
notice(2): Group "all" created containing 1004 particles
Ramp14.py:053  |  rigid = hoomd.md.constrain.rigid();
notice(2): constrain.rigid(): Creating 1000 rigid bodies (adding 8000 particles)
Ramp14.py:065  |  nl = hoomd.md.nlist.tree()
-----
You are using tree neighbor lists. Please cite the following:
* M P Howard, J A Anderson, A Nikoubashman, S C Glotzer, and A Z
  Panagiotopoulos. "Efficient neighbor list calculation for molecular simulation
  of colloidal systems using graphics processing units", Computer Physics
  Communications 203 (2016) 45--52
-----
Ramp14.py:067  |  lj = hoomd.md.pair.lj(r_cut = 3.5, nlist=nl)
Ramp14.py:068  |  lj.set_params(mode='shift')
Ramp14.py:072  |  lj.pair_coeff.set('NP','NP', epsilon = 1.0, sigma = 5.0);
Ramp14.py:073  |  lj.pair_coeff.set('M' ,'M' , epsilon = 1.0, sigma = 1.0);
Ramp14.py:074  |  lj.pair_coeff.set('A' ,'A' , epsilon = 1.0, sigma = 1.0);
Ramp14.py:075  |  lj.pair_coeff.set('M' ,'A' , epsilon = 1.0, sigma = 1.0);
Ramp14.py:076  |  lj.pair_coeff.set('NP','M' , epsilon = 1.0, sigma = 3.0);
Ramp14.py:077  |  lj.pair_coeff.set('NP','A' , epsilon = 1.0, sigma = 3.0);
Ramp14.py:081  |  hoomd.md.integrate.mode_standard(dt = 0.005);
Ramp14.py:085  |  nanoparticles = hoomd.group.type(name = 'Nano_Particles', type = 'NP');
notice(2): Group "Nano_Particles" created containing 4 particles
Ramp14.py:086  |  mesogens = hoomd.group.rigid_center();
notice(2): Group "rigid_center" created containing 1000 particles
notice(2): Group "NP_Mes" created containing 1004 particles
Ramp14.py:092  |  npt = hoomd.md.integrate.npt(group = groupNP_mes, kT = temp, tau = 1.5, tauP = 1.5, P = pressure);
Ramp14.py:101  |  log = hoomd.analyze.log(filename = log_file,
                         quantities = ['num_particles',
                                     'ndof',
                                     'translational_ndof',
                                     'rotational_ndof',
                                     'potential_energy',
                                     'kinetic_energy',
                                     'translational_kinetic_energy',
                                     'rotational_kinetic_energy',
                                     'temperature',
                                     'pressure',
                                      'volume'],
                         period = 1e3,
                         overwrite = True);
Ramp14.py:117  |                 group = hoomd.group.all(),
Ramp14.py:115  |  gsd = hoomd.dump.gsd(gsd_file,
               period = 1e3,
               group = hoomd.group.all(),
               overwrite = True); 
Ramp14.py:119  |  meso_gsd = hoomd.dump.gsd(meso_gsd_file,
               period = 1e3,
               group = groupNP_mes,
               overwrite = True); 
Ramp14.py:130  |  hoomd.run(run_time)
notice(2): -- Neighborlist exclusion statistics -- :
notice(2): Particles with 0 exclusions             : 9004
notice(2): Neighbors included by diameter          : no
notice(2): Neighbors excluded when in the same body: yes
** starting run **
Time 00:00:10 | Step 398743 / 496000 | TPS 274.192 | ETA 00:05:54
Time 00:00:20 | Step 401755 / 496000 | TPS 301.065 | ETA 00:05:13
Time 00:00:30 | Step 404745 / 496000 | TPS 298.779 | ETA 00:05:05
Time 00:00:40 | Step 407731 / 496000 | TPS 298.494 | ETA 00:04:55
Time 00:00:50 | Step 410691 / 496000 | TPS 295.985 | ETA 00:04:48
Time 00:01:00 | Step 413649 / 496000 | TPS 295.793 | ETA 00:04:38
Time 00:01:10 | Step 416605 / 496000 | TPS 295.404 | ETA 00:04:28
Time 00:01:20 | Step 419508 / 496000 | TPS 290.26 | ETA 00:04:23
Time 00:01:30 | Step 422462 / 496000 | TPS 295.185 | ETA 00:04:09
Time 00:01:40 | Step 425466 / 496000 | TPS 300.318 | ETA 00:03:54
Time 00:01:50 | Step 428407 / 496000 | TPS 293.927 | ETA 00:03:49
Time 00:02:00 | Step 431375 / 496000 | TPS 296.742 | ETA 00:03:37
Time 00:02:10 | Step 434307 / 496000 | TPS 293.056 | ETA 00:03:30
Time 00:02:20 | Step 437256 / 496000 | TPS 294.809 | ETA 00:03:19
Time 00:02:30 | Step 440203 / 496000 | TPS 294.521 | ETA 00:03:09
Time 00:02:40 | Step 443156 / 496000 | TPS 295.284 | ETA 00:02:58
Time 00:02:50 | Step 446093 / 496000 | TPS 293.583 | ETA 00:02:49
Time 00:03:00 | Step 448956 / 496000 | TPS 286.249 | ETA 00:02:44
Time 00:03:10 | Step 451861 / 496000 | TPS 290.491 | ETA 00:02:31
Time 00:03:20 | Step 454751 / 496000 | TPS 288.99 | ETA 00:02:22
Time 00:03:30 | Step 457649 / 496000 | TPS 289.788 | ETA 00:02:12
Time 00:03:40 | Step 460581 / 496000 | TPS 293.006 | ETA 00:02:00
Time 00:03:50 | Step 463372 / 496000 | TPS 278.904 | ETA 00:01:56
Time 00:04:00 | Step 466168 / 496000 | TPS 279.474 | ETA 00:01:46
Time 00:04:10 | Step 468965 / 496000 | TPS 279.483 | ETA 00:01:36
Time 00:04:20 | Step 471768 / 496000 | TPS 280.294 | ETA 00:01:26
Time 00:04:30 | Step 474506 / 496000 | TPS 273.781 | ETA 00:01:18
Time 00:04:40 | Step 477345 / 496000 | TPS 283.753 | ETA 00:01:05
Time 00:04:50 | Step 480200 / 496000 | TPS 285.49 | ETA 00:00:55
Time 00:05:00 | Step 483104 / 496000 | TPS 290.391 | ETA 00:00:44
Time 00:05:10 | Step 485973 / 496000 | TPS 286.894 | ETA 00:00:34
Time 00:05:20 | Step 488879 / 496000 | TPS 290.404 | ETA 00:00:24
Time 00:05:30 | Step 493098 / 496000 | TPS 421.883 | ETA 00:00:06
Time 00:05:34 | Step 496000 / 496000 | TPS 637.289 | ETA 00:00:00
Average TPS: 298.81
---------
-- Neighborlist stats:
37413 normal updates / 335 forced updates / 0 dangerous updates
n_neigh_min: 0 / n_neigh_max: 0 / n_neigh_avg: 0
shortest rebuild period: 1
** run complete **
[33mWARNING: Skipping user bind, non existent bind point (file) in container: '/usr/bin/nvidia-smi'
[0m[33mWARNING: Skipping user bind, non existent bind point (file) in container: '/usr/bin/nvidia-debugdump'
[0m[33mWARNING: Skipping user bind, non existent bind point (file) in container: '/usr/bin/nvidia-persistenced'
[0m[33mWARNING: Skipping user bind, non existent bind point (file) in container: '/usr/bin/nvidia-cuda-mps-control'
[0m[33mWARNING: Skipping user bind, non existent bind point (file) in container: '/usr/bin/nvidia-cuda-mps-server'
[0mHOOMD-blue 2.3.5 CUDA (8.0) DOUBLE HPMC_MIXED TBB SSE SSE2 
Compiled: 10/08/18
Copyright 2009-2018 The Regents of the University of Michigan.
-----
You are using HOOMD-blue. Please cite the following:
* J A Anderson, C D Lorenz, and A Travesset. "General purpose molecular dynamics
  simulations fully implemented on graphics processing units", Journal of
  Computational Physics 227 (2008) 5342--5359
* J Glaser, T D Nguyen, J A Anderson, P Liu, F Spiga, J A Millan, D C Morse, and
  S C Glotzer. "Strong scaling of general-purpose molecular dynamics simulations
  on GPUs", Computer Physics Communications 192 (2015) 97--107
-----
notice(2): This system is not compute exclusive, using local rank to select GPUs
HOOMD-blue is running on the following GPU(s):
 [0]            Tesla K20m  13 SM_3.5 @ 0.706 GHz, 4743 MiB DRAM
Ramp16.py:049  |  system = hoomd.init.read_gsd(ramp_file,frame = -1)
notice(2): Group "all" created containing 1004 particles
Ramp16.py:053  |  rigid = hoomd.md.constrain.rigid();
notice(2): constrain.rigid(): Creating 1000 rigid bodies (adding 8000 particles)
Ramp16.py:065  |  nl = hoomd.md.nlist.tree()
-----
You are using tree neighbor lists. Please cite the following:
* M P Howard, J A Anderson, A Nikoubashman, S C Glotzer, and A Z
  Panagiotopoulos. "Efficient neighbor list calculation for molecular simulation
  of colloidal systems using graphics processing units", Computer Physics
  Communications 203 (2016) 45--52
-----
Ramp16.py:067  |  lj = hoomd.md.pair.lj(r_cut = 3.5, nlist=nl)
Ramp16.py:068  |  lj.set_params(mode='shift')
Ramp16.py:072  |  lj.pair_coeff.set('NP','NP', epsilon = 1.0, sigma = 5.0);
Ramp16.py:073  |  lj.pair_coeff.set('M' ,'M' , epsilon = 1.0, sigma = 1.0);
Ramp16.py:074  |  lj.pair_coeff.set('A' ,'A' , epsilon = 1.0, sigma = 1.0);
Ramp16.py:075  |  lj.pair_coeff.set('M' ,'A' , epsilon = 1.0, sigma = 1.0);
Ramp16.py:076  |  lj.pair_coeff.set('NP','M' , epsilon = 1.0, sigma = 3.0);
Ramp16.py:077  |  lj.pair_coeff.set('NP','A' , epsilon = 1.0, sigma = 3.0);
Ramp16.py:081  |  hoomd.md.integrate.mode_standard(dt = 0.005);
Ramp16.py:085  |  nanoparticles = hoomd.group.type(name = 'Nano_Particles', type = 'NP');
notice(2): Group "Nano_Particles" created containing 4 particles
Ramp16.py:086  |  mesogens = hoomd.group.rigid_center();
notice(2): Group "rigid_center" created containing 1000 particles
notice(2): Group "NP_Mes" created containing 1004 particles
Ramp16.py:092  |  npt = hoomd.md.integrate.npt(group = groupNP_mes, kT = temp, tau = 2.0, tauP = 2.0, P = pressure);
Ramp16.py:101  |  log = hoomd.analyze.log(filename = log_file,
                         quantities = ['num_particles',
                                     'ndof',
                                     'translational_ndof',
                                     'rotational_ndof',
                                     'potential_energy',
                                     'kinetic_energy',
                                     'translational_kinetic_energy',
                                     'rotational_kinetic_energy',
                                     'temperature',
                                     'pressure',
                                      'volume'],
                         period = 1e3,
                         overwrite = True);
Ramp16.py:117  |                 group = hoomd.group.all(),
Ramp16.py:115  |  gsd = hoomd.dump.gsd(gsd_file,
               period = 1e3,
               group = hoomd.group.all(),
               overwrite = True); 
Ramp16.py:119  |  meso_gsd = hoomd.dump.gsd(meso_gsd_file,
               period = 1e3,
               group = groupNP_mes,
               overwrite = True); 
Ramp16.py:130  |  hoomd.run(run_time)
notice(2): -- Neighborlist exclusion statistics -- :
notice(2): Particles with 0 exclusions             : 9004
notice(2): Neighbors included by diameter          : no
notice(2): Neighbors excluded when in the same body: yes
** starting run **
Time 00:00:10 | Step 500101 / 595000 | TPS 496.476 | ETA 00:03:11
Time 00:00:20 | Step 507001 / 595000 | TPS 673.842 | ETA 00:02:10
Time 00:00:30 | Step 512701 / 595000 | TPS 565.687 | ETA 00:02:25
Time 00:00:41 | Step 517801 / 595000 | TPS 493.71 | ETA 00:02:36
Time 00:00:51 | Step 521701 / 595000 | TPS 380.814 | ETA 00:03:12
Time 00:01:01 | Step 525601 / 595000 | TPS 381.19 | ETA 00:03:02
Time 00:01:11 | Step 531901 / 595000 | TPS 608.09 | ETA 00:01:43
Time 00:01:22 | Step 538201 / 595000 | TPS 615.929 | ETA 00:01:32
Time 00:01:32 | Step 544788 / 595000 | TPS 658.679 | ETA 00:01:16
Time 00:01:42 | Step 551441 / 595000 | TPS 665.28 | ETA 00:01:05
Time 00:01:52 | Step 558301 / 595000 | TPS 680.252 | ETA 00:00:53
Time 00:02:02 | Step 565201 / 595000 | TPS 683.337 | ETA 00:00:43
Time 00:02:12 | Step 572101 / 595000 | TPS 683.399 | ETA 00:00:33
Time 00:02:22 | Step 579001 / 595000 | TPS 683.368 | ETA 00:00:23
Time 00:02:32 | Step 585901 / 595000 | TPS 683.861 | ETA 00:00:13
Time 00:02:42 | Step 592801 / 595000 | TPS 683.61 | ETA 00:00:03
Time 00:02:45 | Step 595000 / 595000 | TPS 706.873 | ETA 00:00:00
Average TPS: 603.675
---------
-- Neighborlist stats:
0 normal updates / 335 forced updates / 0 dangerous updates
n_neigh_min: 0 / n_neigh_max: 0 / n_neigh_avg: 0
shortest rebuild period: 100
** run complete **
[33mWARNING: Skipping user bind, non existent bind point (file) in container: '/usr/bin/nvidia-smi'
[0m[33mWARNING: Skipping user bind, non existent bind point (file) in container: '/usr/bin/nvidia-debugdump'
[0m[33mWARNING: Skipping user bind, non existent bind point (file) in container: '/usr/bin/nvidia-persistenced'
[0m[33mWARNING: Skipping user bind, non existent bind point (file) in container: '/usr/bin/nvidia-cuda-mps-control'
[0m[33mWARNING: Skipping user bind, non existent bind point (file) in container: '/usr/bin/nvidia-cuda-mps-server'
[0mHOOMD-blue 2.3.5 CUDA (8.0) DOUBLE HPMC_MIXED TBB SSE SSE2 
Compiled: 10/08/18
Copyright 2009-2018 The Regents of the University of Michigan.
-----
You are using HOOMD-blue. Please cite the following:
* J A Anderson, C D Lorenz, and A Travesset. "General purpose molecular dynamics
  simulations fully implemented on graphics processing units", Journal of
  Computational Physics 227 (2008) 5342--5359
* J Glaser, T D Nguyen, J A Anderson, P Liu, F Spiga, J A Millan, D C Morse, and
  S C Glotzer. "Strong scaling of general-purpose molecular dynamics simulations
  on GPUs", Computer Physics Communications 192 (2015) 97--107
-----
notice(2): This system is not compute exclusive, using local rank to select GPUs
HOOMD-blue is running on the following GPU(s):
 [0]            Tesla K20m  13 SM_3.5 @ 0.706 GHz, 4743 MiB DRAM
Ramp18.py:049  |  system = hoomd.init.read_gsd(ramp_file,frame = -1)
notice(2): Group "all" created containing 1004 particles
Ramp18.py:053  |  rigid = hoomd.md.constrain.rigid();
notice(2): constrain.rigid(): Creating 1000 rigid bodies (adding 8000 particles)
Ramp18.py:065  |  nl = hoomd.md.nlist.tree()
-----
You are using tree neighbor lists. Please cite the following:
* M P Howard, J A Anderson, A Nikoubashman, S C Glotzer, and A Z
  Panagiotopoulos. "Efficient neighbor list calculation for molecular simulation
  of colloidal systems using graphics processing units", Computer Physics
  Communications 203 (2016) 45--52
-----
Ramp18.py:067  |  lj = hoomd.md.pair.lj(r_cut = 3.5, nlist=nl)
Ramp18.py:068  |  lj.set_params(mode='shift')
Ramp18.py:072  |  lj.pair_coeff.set('NP','NP', epsilon = 1.0, sigma = 5.0);
Ramp18.py:073  |  lj.pair_coeff.set('M' ,'M' , epsilon = 1.0, sigma = 1.0);
Ramp18.py:074  |  lj.pair_coeff.set('A' ,'A' , epsilon = 1.0, sigma = 1.0);
Ramp18.py:075  |  lj.pair_coeff.set('M' ,'A' , epsilon = 1.0, sigma = 1.0);
Ramp18.py:076  |  lj.pair_coeff.set('NP','M' , epsilon = 1.0, sigma = 3.0);
Ramp18.py:077  |  lj.pair_coeff.set('NP','A' , epsilon = 1.0, sigma = 3.0);
Ramp18.py:081  |  hoomd.md.integrate.mode_standard(dt = 0.005);
Ramp18.py:085  |  nanoparticles = hoomd.group.type(name = 'Nano_Particles', type = 'NP');
notice(2): Group "Nano_Particles" created containing 4 particles
Ramp18.py:086  |  mesogens = hoomd.group.rigid_center();
notice(2): Group "rigid_center" created containing 1000 particles
notice(2): Group "NP_Mes" created containing 1004 particles
Ramp18.py:092  |  npt = hoomd.md.integrate.npt(group = groupNP_mes, kT = temp, tau = 2.0, tauP = 2.0, P = pressure);
Ramp18.py:101  |  log = hoomd.analyze.log(filename = log_file,
                         quantities = ['num_particles',
                                     'ndof',
                                     'translational_ndof',
                                     'rotational_ndof',
                                     'potential_energy',
                                     'kinetic_energy',
                                     'translational_kinetic_energy',
                                     'rotational_kinetic_energy',
                                     'temperature',
                                     'pressure',
                                      'volume'],
                         period = 1e3,
                         overwrite = True);
Ramp18.py:117  |                 group = hoomd.group.all(),
Ramp18.py:115  |  gsd = hoomd.dump.gsd(gsd_file,
               period = 1e3,
               group = hoomd.group.all(),
               overwrite = True); 
Ramp18.py:119  |  meso_gsd = hoomd.dump.gsd(meso_gsd_file,
               period = 1e3,
               group = groupNP_mes,
               overwrite = True); 
Ramp18.py:130  |  hoomd.run(run_time)
notice(2): -- Neighborlist exclusion statistics -- :
notice(2): Particles with 0 exclusions             : 9004
notice(2): Neighbors included by diameter          : no
notice(2): Neighbors excluded when in the same body: yes
** starting run **
Time 00:00:10 | Step 599101 / 694000 | TPS 497.245 | ETA 00:03:10
Time 00:00:20 | Step 606001 / 694000 | TPS 675.299 | ETA 00:02:10
Time 00:00:30 | Step 611701 / 694000 | TPS 566.843 | ETA 00:02:25
Time 00:00:41 | Step 616801 / 694000 | TPS 494.403 | ETA 00:02:36
Time 00:00:51 | Step 620701 / 694000 | TPS 381.217 | ETA 00:03:12
Time 00:01:01 | Step 624601 / 694000 | TPS 381.637 | ETA 00:03:01
Time 00:01:11 | Step 630901 / 694000 | TPS 609.526 | ETA 00:01:43
Time 00:01:22 | Step 637201 / 694000 | TPS 617.172 | ETA 00:01:32
Time 00:01:32 | Step 643801 / 694000 | TPS 640.739 | ETA 00:01:18
Time 00:01:42 | Step 650701 / 694000 | TPS 684.658 | ETA 00:01:03
Time 00:01:52 | Step 657601 / 694000 | TPS 684.81 | ETA 00:00:53
Time 00:02:02 | Step 664501 / 694000 | TPS 684.567 | ETA 00:00:43
Time 00:02:12 | Step 671401 / 694000 | TPS 684.537 | ETA 00:00:33
Time 00:02:22 | Step 678301 / 694000 | TPS 683.985 | ETA 00:00:22
Time 00:02:32 | Step 685201 / 694000 | TPS 684.53 | ETA 00:00:12
Time 00:02:42 | Step 692101 / 694000 | TPS 684.611 | ETA 00:00:02
Time 00:02:45 | Step 694000 / 694000 | TPS 713.078 | ETA 00:00:00
Average TPS: 604.727
---------
-- Neighborlist stats:
0 normal updates / 335 forced updates / 0 dangerous updates
n_neigh_min: 0 / n_neigh_max: 0 / n_neigh_avg: 0
shortest rebuild period: 100
** run complete **
