[33mWARNING: Skipping user bind, non existent bind point (file) in container: '/usr/bin/nvidia-smi'
[0m[33mWARNING: Skipping user bind, non existent bind point (file) in container: '/usr/bin/nvidia-debugdump'
[0m[33mWARNING: Skipping user bind, non existent bind point (file) in container: '/usr/bin/nvidia-persistenced'
[0m[33mWARNING: Skipping user bind, non existent bind point (file) in container: '/usr/bin/nvidia-cuda-mps-control'
[0m[33mWARNING: Skipping user bind, non existent bind point (file) in container: '/usr/bin/nvidia-cuda-mps-server'
[0mHOOMD-blue 2.3.5 CUDA (8.0) DOUBLE HPMC_MIXED TBB SSE SSE2 
Compiled: 10/08/18
Copyright 2009-2018 The Regents of the University of Michigan.
-----
You are using HOOMD-blue. Please cite the following:
* J A Anderson, C D Lorenz, and A Travesset. "General purpose molecular dynamics
  simulations fully implemented on graphics processing units", Journal of
  Computational Physics 227 (2008) 5342--5359
* J Glaser, T D Nguyen, J A Anderson, P Liu, F Spiga, J A Millan, D C Morse, and
  S C Glotzer. "Strong scaling of general-purpose molecular dynamics simulations
  on GPUs", Computer Physics Communications 192 (2015) 97--107
-----
notice(2): This system is not compute exclusive, using local rank to select GPUs
HOOMD-blue is running on the following GPU(s):
 [0]            Tesla K20m  13 SM_3.5 @ 0.706 GHz, 4743 MiB DRAM
Equilibrium_T_6_8.py:027  |  system = hoomd.init.read_gsd("T_CM_6.8_P_1.4_ramp.gsd",frame = -1)
notice(2): Group "all" created containing 1000 particles
Equilibrium_T_6_8.py:031  |  rigid = hoomd.md.constrain.rigid();
notice(2): constrain.rigid(): Creating 1000 rigid bodies (adding 8000 particles)
Equilibrium_T_6_8.py:043  |  nl = hoomd.md.nlist.tree();
-----
You are using tree neighbor lists. Please cite the following:
* M P Howard, J A Anderson, A Nikoubashman, S C Glotzer, and A Z
  Panagiotopoulos. "Efficient neighbor list calculation for molecular simulation
  of colloidal systems using graphics processing units", Computer Physics
  Communications 203 (2016) 45--52
-----
Equilibrium_T_6_8.py:045  |  lj = hoomd.md.pair.lj(r_cut = 3.5, nlist = nl)
Equilibrium_T_6_8.py:046  |  lj.set_params(mode = 'shift')
Equilibrium_T_6_8.py:050  |  lj.pair_coeff.set('M','M', epsilon = 1.0, sigma = 1.0)
Equilibrium_T_6_8.py:051  |  lj.pair_coeff.set('A','A', epsilon = 1.0, sigma = 1.0)
Equilibrium_T_6_8.py:052  |  lj.pair_coeff.set('M','A', epsilon = 1.0, sigma = 1.0)
Equilibrium_T_6_8.py:056  |  hoomd.md.integrate.mode_standard(dt = 0.005);
Equilibrium_T_6_8.py:060  |  mesogens = hoomd.group.rigid_center();
notice(2): Group "rigid_center" created containing 1000 particles
Equilibrium_T_6_8.py:068  |  npt = hoomd.md.integrate.npt(group = mesogens, kT = t_max, tau = 12.5, tauP = 12.5, P = p_max);
Equilibrium_T_6_8.py:077  |  log = hoomd.analyze.log(filename = log_file,
                         quantities = ['num_particles',
                                     'ndof',
                                     'translational_ndof',
                                     'rotational_ndof',
                                     'potential_energy',
                                     'kinetic_energy',
                                     'translational_kinetic_energy',
                                     'rotational_kinetic_energy',
                                     'temperature',
                                     'pressure',
                                      'volume'],
                         period = 1e3,
                         overwrite = True);
Equilibrium_T_6_8.py:093  |                 group = hoomd.group.all(),
Equilibrium_T_6_8.py:091  |  gsd = hoomd.dump.gsd(gsd_file,
               period = 1e3,
               group = hoomd.group.all(),
               overwrite = True); 
Equilibrium_T_6_8.py:095  |  meso_gsd = hoomd.dump.gsd(meso_gsd_file,
               period = 1e3,
               group = mesogens,
               overwrite = True); 
Equilibrium_T_6_8.py:104  |  hoomd.run(steps)
notice(2): -- Neighborlist exclusion statistics -- :
notice(2): Particles with 0 exclusions             : 9000
notice(2): Neighbors included by diameter          : no
notice(2): Neighbors excluded when in the same body: yes
** starting run **
Time 00:00:10 | Step 1697473 / 1895000 | TPS 247.213 | ETA 00:13:19
Time 00:00:20 | Step 1700218 / 1895000 | TPS 274.322 | ETA 00:11:50
Time 00:00:30 | Step 1702940 / 1895000 | TPS 272.056 | ETA 00:11:45
Time 00:00:40 | Step 1705651 / 1895000 | TPS 271.028 | ETA 00:11:38
Time 00:00:50 | Step 1708388 / 1895000 | TPS 273.696 | ETA 00:11:21
Time 00:01:00 | Step 1711121 / 1895000 | TPS 273.142 | ETA 00:11:13
Time 00:01:10 | Step 1713886 / 1895000 | TPS 276.371 | ETA 00:10:55
Time 00:01:20 | Step 1716621 / 1895000 | TPS 273.427 | ETA 00:10:52
Time 00:01:30 | Step 1719383 / 1895000 | TPS 276.072 | ETA 00:10:36
Time 00:01:40 | Step 1722035 / 1895000 | TPS 265.052 | ETA 00:10:52
Time 00:01:50 | Step 1724737 / 1895000 | TPS 270.13 | ETA 00:10:30
Time 00:02:00 | Step 1727448 / 1895000 | TPS 270.906 | ETA 00:10:18
Time 00:02:10 | Step 1730167 / 1895000 | TPS 271.751 | ETA 00:10:06
Time 00:02:20 | Step 1732951 / 1895000 | TPS 278.265 | ETA 00:09:42
Time 00:02:30 | Step 1735733 / 1895000 | TPS 278.144 | ETA 00:09:32
Time 00:02:40 | Step 1738467 / 1895000 | TPS 273.235 | ETA 00:09:32
Time 00:02:50 | Step 1741189 / 1895000 | TPS 272.138 | ETA 00:09:25
Time 00:03:00 | Step 1743905 / 1895000 | TPS 271.429 | ETA 00:09:16
Time 00:03:10 | Step 1746545 / 1895000 | TPS 263.923 | ETA 00:09:22
Time 00:03:20 | Step 1749259 / 1895000 | TPS 271.292 | ETA 00:08:57
Time 00:03:30 | Step 1752057 / 1895000 | TPS 279.633 | ETA 00:08:31
Time 00:03:40 | Step 1754896 / 1895000 | TPS 283.819 | ETA 00:08:13
Time 00:03:50 | Step 1757663 / 1895000 | TPS 276.575 | ETA 00:08:16
Time 00:04:00 | Step 1760364 / 1895000 | TPS 269.961 | ETA 00:08:18
Time 00:04:10 | Step 1763004 / 1895000 | TPS 263.827 | ETA 00:08:20
Time 00:04:20 | Step 1765643 / 1895000 | TPS 263.864 | ETA 00:08:10
Time 00:04:30 | Step 1768252 / 1895000 | TPS 260.747 | ETA 00:08:06
Time 00:04:40 | Step 1770967 / 1895000 | TPS 271.483 | ETA 00:07:36
Time 00:04:50 | Step 1773690 / 1895000 | TPS 272.236 | ETA 00:07:25
Time 00:05:00 | Step 1776412 / 1895000 | TPS 271.993 | ETA 00:07:15
Time 00:05:10 | Step 1779094 / 1895000 | TPS 268.024 | ETA 00:07:12
Time 00:05:20 | Step 1781757 / 1895000 | TPS 266.201 | ETA 00:07:05
Time 00:05:30 | Step 1784325 / 1895000 | TPS 256.791 | ETA 00:07:10
Time 00:05:40 | Step 1786938 / 1895000 | TPS 261.179 | ETA 00:06:53
Time 00:05:50 | Step 1789592 / 1895000 | TPS 265.271 | ETA 00:06:37
Time 00:06:00 | Step 1794001 / 1895000 | TPS 431.675 | ETA 00:03:53
Time 00:06:10 | Step 1800301 / 1895000 | TPS 627.7 | ETA 00:02:30
Time 00:06:20 | Step 1806601 / 1895000 | TPS 629.797 | ETA 00:02:20
Time 00:06:30 | Step 1812901 / 1895000 | TPS 629.693 | ETA 00:02:10
Time 00:06:40 | Step 1819201 / 1895000 | TPS 629.207 | ETA 00:02:00
Time 00:06:50 | Step 1825501 / 1895000 | TPS 629.672 | ETA 00:01:50
Time 00:07:00 | Step 1831801 / 1895000 | TPS 629.766 | ETA 00:01:40
Time 00:07:10 | Step 1838101 / 1895000 | TPS 629.418 | ETA 00:01:30
Time 00:07:20 | Step 1844401 / 1895000 | TPS 629.678 | ETA 00:01:20
Time 00:07:30 | Step 1850701 / 1895000 | TPS 629.471 | ETA 00:01:10
Time 00:07:40 | Step 1857001 / 1895000 | TPS 629.228 | ETA 00:01:00
Time 00:07:50 | Step 1863301 / 1895000 | TPS 629.577 | ETA 00:00:50
Time 00:08:00 | Step 1869601 / 1895000 | TPS 629.709 | ETA 00:00:40
Time 00:08:10 | Step 1875901 / 1895000 | TPS 629.679 | ETA 00:00:30
Time 00:08:20 | Step 1882201 / 1895000 | TPS 629.158 | ETA 00:00:20
Time 00:08:30 | Step 1888501 / 1895000 | TPS 629.563 | ETA 00:00:10
Time 00:08:40 | Step 1894801 / 1895000 | TPS 629.776 | ETA 00:00:00
Time 00:08:40 | Step 1895000 / 1895000 | TPS 2116.86 | ETA 00:00:00
Average TPS: 384.174
---------
-- Neighborlist stats:
43389 normal updates / 668 forced updates / 0 dangerous updates
n_neigh_min: 0 / n_neigh_max: 0 / n_neigh_avg: 0
shortest rebuild period: 1
** run complete **
