[33mWARNING: Skipping user bind, non existent bind point (file) in container: '/usr/bin/nvidia-smi'
[0m[33mWARNING: Skipping user bind, non existent bind point (file) in container: '/usr/bin/nvidia-debugdump'
[0m[33mWARNING: Skipping user bind, non existent bind point (file) in container: '/usr/bin/nvidia-persistenced'
[0m[33mWARNING: Skipping user bind, non existent bind point (file) in container: '/usr/bin/nvidia-cuda-mps-control'
[0m[33mWARNING: Skipping user bind, non existent bind point (file) in container: '/usr/bin/nvidia-cuda-mps-server'
[0m**ERROR**: nlist.tree(): Particle 683 is out of bounds (x: -15.853, y: -39.017, z: 40.2185, fx: -0.135734, fy: -1.06465, fz:2.11283)
HOOMD-blue 2.3.5 CUDA (8.0) DOUBLE HPMC_MIXED TBB SSE SSE2 
Compiled: 10/08/18
Copyright 2009-2018 The Regents of the University of Michigan.
-----
You are using HOOMD-blue. Please cite the following:
* J A Anderson, C D Lorenz, and A Travesset. "General purpose molecular dynamics
  simulations fully implemented on graphics processing units", Journal of
  Computational Physics 227 (2008) 5342--5359
* J Glaser, T D Nguyen, J A Anderson, P Liu, F Spiga, J A Millan, D C Morse, and
  S C Glotzer. "Strong scaling of general-purpose molecular dynamics simulations
  on GPUs", Computer Physics Communications 192 (2015) 97--107
-----
notice(2): This system is not compute exclusive, using local rank to select GPUs
HOOMD-blue is running on the following GPU(s):
 [0]            Tesla K20m  13 SM_3.5 @ 0.758 GHz, 4743 MiB DRAM
Ramp18.py:049  |  system = hoomd.init.read_gsd(ramp_file,frame = -1)
notice(2): Group "all" created containing 1004 particles
Ramp18.py:053  |  rigid = hoomd.md.constrain.rigid();
notice(2): constrain.rigid(): Creating 1000 rigid bodies (adding 8000 particles)
Ramp18.py:065  |  nl = hoomd.md.nlist.tree()
-----
You are using tree neighbor lists. Please cite the following:
* M P Howard, J A Anderson, A Nikoubashman, S C Glotzer, and A Z
  Panagiotopoulos. "Efficient neighbor list calculation for molecular simulation
  of colloidal systems using graphics processing units", Computer Physics
  Communications 203 (2016) 45--52
-----
Ramp18.py:067  |  lj = hoomd.md.pair.lj(r_cut = 3.5, nlist=nl)
Ramp18.py:068  |  lj.set_params(mode='shift')
Ramp18.py:072  |  lj.pair_coeff.set('NP','NP', epsilon = 1.0, sigma = 5.0);
Ramp18.py:073  |  lj.pair_coeff.set('M' ,'M' , epsilon = 1.0, sigma = 1.0);
Ramp18.py:074  |  lj.pair_coeff.set('A' ,'A' , epsilon = 1.0, sigma = 1.0);
Ramp18.py:075  |  lj.pair_coeff.set('M' ,'A' , epsilon = 1.0, sigma = 1.0);
Ramp18.py:076  |  lj.pair_coeff.set('NP','M' , epsilon = 1.0, sigma = 3.0);
Ramp18.py:077  |  lj.pair_coeff.set('NP','A' , epsilon = 1.0, sigma = 3.0);
Ramp18.py:081  |  hoomd.md.integrate.mode_standard(dt = 0.005);
Ramp18.py:085  |  nanoparticles = hoomd.group.type(name = 'Nano_Particles', type = 'NP');
notice(2): Group "Nano_Particles" created containing 4 particles
Ramp18.py:086  |  mesogens = hoomd.group.rigid_center();
notice(2): Group "rigid_center" created containing 1000 particles
notice(2): Group "NP_Mes" created containing 1004 particles
Ramp18.py:092  |  npt = hoomd.md.integrate.npt(group = groupNP_mes, kT = temp, tau = 4.5, tauP = 4.5, P = pressure);
Ramp18.py:101  |  log = hoomd.analyze.log(filename = log_file,
                         quantities = ['num_particles',
                                     'ndof',
                                     'translational_ndof',
                                     'rotational_ndof',
                                     'potential_energy',
                                     'kinetic_energy',
                                     'translational_kinetic_energy',
                                     'rotational_kinetic_energy',
                                     'temperature',
                                     'pressure',
                                      'volume'],
                         period = 1e3,
                         overwrite = True);
Ramp18.py:117  |                 group = hoomd.group.all(),
Ramp18.py:115  |  gsd = hoomd.dump.gsd(gsd_file,
               period = 1e3,
               group = hoomd.group.all(),
               overwrite = True); 
Ramp18.py:119  |  meso_gsd = hoomd.dump.gsd(meso_gsd_file,
               period = 1e3,
               group = groupNP_mes,
               overwrite = True); 
Ramp18.py:130  |  hoomd.run(run_time)
notice(2): -- Neighborlist exclusion statistics -- :
notice(2): Particles with 0 exclusions             : 9004
notice(2): Neighbors included by diameter          : no
notice(2): Neighbors excluded when in the same body: yes
** starting run **
Time 00:00:10 | Step 596381 / 694000 | TPS 237.967 | ETA 00:06:50
Time 00:00:20 | Step 599046 / 694000 | TPS 266.443 | ETA 00:05:56
Time 00:00:30 | Step 601739 / 694000 | TPS 269.152 | ETA 00:05:42
Time 00:00:40 | Step 604383 / 694000 | TPS 264.398 | ETA 00:05:38
Time 00:00:50 | Step 607019 / 694000 | TPS 263.489 | ETA 00:05:30
Time 00:01:00 | Step 609645 / 694000 | TPS 262.448 | ETA 00:05:21
Time 00:01:10 | Step 612246 / 694000 | TPS 259.916 | ETA 00:05:14
Time 00:01:20 | Step 614867 / 694000 | TPS 262.089 | ETA 00:05:01
Time 00:01:30 | Step 617523 / 694000 | TPS 265.381 | ETA 00:04:48
Time 00:01:40 | Step 620161 / 694000 | TPS 263.589 | ETA 00:04:40
Time 00:01:50 | Step 622781 / 694000 | TPS 261.924 | ETA 00:04:31
Time 00:02:00 | Step 625373 / 694000 | TPS 259.08 | ETA 00:04:24
Time 00:02:10 | Step 628010 / 694000 | TPS 263.698 | ETA 00:04:10
Time 00:02:20 | Step 630567 / 694000 | TPS 255.54 | ETA 00:04:08
Time 00:02:30 | Step 633155 / 694000 | TPS 258.769 | ETA 00:03:55
Time 00:02:40 | Step 635740 / 694000 | TPS 258.329 | ETA 00:03:45
Time 00:02:50 | Step 638298 / 694000 | TPS 255.782 | ETA 00:03:37
Time 00:03:00 | Step 640905 / 694000 | TPS 260.672 | ETA 00:03:23
Time 00:03:10 | Step 643511 / 694000 | TPS 260.406 | ETA 00:03:13
Time 00:03:20 | Step 646096 / 694000 | TPS 258.496 | ETA 00:03:05
Time 00:03:30 | Step 648705 / 694000 | TPS 260.727 | ETA 00:02:53
Time 00:03:40 | Step 651304 / 694000 | TPS 259.786 | ETA 00:02:44
Time 00:03:50 | Step 653885 / 694000 | TPS 258.022 | ETA 00:02:35
Time 00:04:00 | Step 656432 / 694000 | TPS 254.627 | ETA 00:02:27
Time 00:04:10 | Step 658991 / 694000 | TPS 255.694 | ETA 00:02:16
Time 00:04:20 | Step 661594 / 694000 | TPS 260.287 | ETA 00:02:04
Time 00:04:30 | Step 664173 / 694000 | TPS 257.802 | ETA 00:01:55
Time 00:04:40 | Step 666731 / 694000 | TPS 255.747 | ETA 00:01:46
Time 00:04:50 | Step 669367 / 694000 | TPS 263.582 | ETA 00:01:33
Time 00:05:00 | Step 671910 / 694000 | TPS 254.167 | ETA 00:01:26
Time 00:05:10 | Step 674461 / 694000 | TPS 255.1 | ETA 00:01:16
Time 00:05:20 | Step 677052 / 694000 | TPS 258.945 | ETA 00:01:05
Time 00:05:30 | Step 679548 / 694000 | TPS 249.554 | ETA 00:00:57
Time 00:05:40 | Step 682109 / 694000 | TPS 255.961 | ETA 00:00:46
Time 00:05:50 | Step 684712 / 694000 | TPS 260.192 | ETA 00:00:35
Time 00:06:00 | Step 687354 / 694000 | TPS 264.1 | ETA 00:00:25
Traceback (most recent call last):
  File "Ramp18.py", line 130, in <module>
    hoomd.run(run_time)
  File "/usr/local/lib/python3.5/dist-packages/hoomd/__init__.py", line 194, in run
    context.current.system.run(int(tsteps), callback_period, callback, limit_hours, int(limit_multiple));
RuntimeError: Error updating neighborlist
