[33mWARNING: Skipping user bind, non existent bind point (file) in container: '/usr/bin/nvidia-smi'
[0m[33mWARNING: Skipping user bind, non existent bind point (file) in container: '/usr/bin/nvidia-debugdump'
[0m[33mWARNING: Skipping user bind, non existent bind point (file) in container: '/usr/bin/nvidia-persistenced'
[0m[33mWARNING: Skipping user bind, non existent bind point (file) in container: '/usr/bin/nvidia-cuda-mps-control'
[0m[33mWARNING: Skipping user bind, non existent bind point (file) in container: '/usr/bin/nvidia-cuda-mps-server'
[0mHOOMD-blue 2.3.5 CUDA (8.0) DOUBLE HPMC_MIXED TBB SSE SSE2 
Compiled: 10/08/18
Copyright 2009-2018 The Regents of the University of Michigan.
-----
You are using HOOMD-blue. Please cite the following:
* J A Anderson, C D Lorenz, and A Travesset. "General purpose molecular dynamics
  simulations fully implemented on graphics processing units", Journal of
  Computational Physics 227 (2008) 5342--5359
* J Glaser, T D Nguyen, J A Anderson, P Liu, F Spiga, J A Millan, D C Morse, and
  S C Glotzer. "Strong scaling of general-purpose molecular dynamics simulations
  on GPUs", Computer Physics Communications 192 (2015) 97--107
-----
notice(2): This system is not compute exclusive, using local rank to select GPUs
HOOMD-blue is running on the following GPU(s):
 [0]            Tesla K20m  13 SM_3.5 @ 0.706 GHz, 4743 MiB DRAM
Ramp18.py:049  |  system = hoomd.init.read_gsd(ramp_file,frame = -1)
notice(2): Group "all" created containing 1004 particles
Ramp18.py:053  |  rigid = hoomd.md.constrain.rigid();
notice(2): constrain.rigid(): Creating 1000 rigid bodies (adding 8000 particles)
Ramp18.py:065  |  nl = hoomd.md.nlist.tree()
-----
You are using tree neighbor lists. Please cite the following:
* M P Howard, J A Anderson, A Nikoubashman, S C Glotzer, and A Z
  Panagiotopoulos. "Efficient neighbor list calculation for molecular simulation
  of colloidal systems using graphics processing units", Computer Physics
  Communications 203 (2016) 45--52
-----
Ramp18.py:067  |  lj = hoomd.md.pair.lj(r_cut = 3.5, nlist=nl)
Ramp18.py:068  |  lj.set_params(mode='shift')
Ramp18.py:072  |  lj.pair_coeff.set('NP','NP', epsilon = 1.0, sigma = 5.0);
Ramp18.py:073  |  lj.pair_coeff.set('M' ,'M' , epsilon = 1.0, sigma = 1.0);
Ramp18.py:074  |  lj.pair_coeff.set('A' ,'A' , epsilon = 1.0, sigma = 1.0);
Ramp18.py:075  |  lj.pair_coeff.set('M' ,'A' , epsilon = 1.0, sigma = 1.0);
Ramp18.py:076  |  lj.pair_coeff.set('NP','M' , epsilon = 1.0, sigma = 3.0);
Ramp18.py:077  |  lj.pair_coeff.set('NP','A' , epsilon = 1.0, sigma = 3.0);
Ramp18.py:081  |  hoomd.md.integrate.mode_standard(dt = 0.005);
Ramp18.py:085  |  nanoparticles = hoomd.group.type(name = 'Nano_Particles', type = 'NP');
notice(2): Group "Nano_Particles" created containing 4 particles
Ramp18.py:086  |  mesogens = hoomd.group.rigid_center();
notice(2): Group "rigid_center" created containing 1000 particles
notice(2): Group "NP_Mes" created containing 1004 particles
Ramp18.py:092  |  npt = hoomd.md.integrate.npt(group = groupNP_mes, kT = temp, tau = 3.5, tauP = 3.5, P = pressure);
Ramp18.py:101  |  log = hoomd.analyze.log(filename = log_file,
                         quantities = ['num_particles',
                                     'ndof',
                                     'translational_ndof',
                                     'rotational_ndof',
                                     'potential_energy',
                                     'kinetic_energy',
                                     'translational_kinetic_energy',
                                     'rotational_kinetic_energy',
                                     'temperature',
                                     'pressure',
                                      'volume'],
                         period = 1e3,
                         overwrite = True);
Ramp18.py:117  |                 group = hoomd.group.all(),
Ramp18.py:115  |  gsd = hoomd.dump.gsd(gsd_file,
               period = 1e3,
               group = hoomd.group.all(),
               overwrite = True); 
Ramp18.py:119  |  meso_gsd = hoomd.dump.gsd(meso_gsd_file,
               period = 1e3,
               group = groupNP_mes,
               overwrite = True); 
Ramp18.py:130  |  hoomd.run(run_time)
notice(2): -- Neighborlist exclusion statistics -- :
notice(2): Particles with 0 exclusions             : 9004
notice(2): Neighbors included by diameter          : no
notice(2): Neighbors excluded when in the same body: yes
** starting run **
Time 00:00:10 | Step 585247 / 683000 | TPS 224.685 | ETA 00:07:15
Time 00:00:20 | Step 587784 / 683000 | TPS 253.583 | ETA 00:06:15
Time 00:00:30 | Step 590255 / 683000 | TPS 247.087 | ETA 00:06:15
Time 00:00:40 | Step 592754 / 683000 | TPS 249.797 | ETA 00:06:01
Time 00:00:50 | Step 595255 / 683000 | TPS 249.914 | ETA 00:05:51
Time 00:01:00 | Step 597760 / 683000 | TPS 250.325 | ETA 00:05:40
Time 00:01:10 | Step 600270 / 683000 | TPS 250.852 | ETA 00:05:29
Time 00:01:20 | Step 602778 / 683000 | TPS 250.789 | ETA 00:05:19
Time 00:01:30 | Step 605217 / 683000 | TPS 243.694 | ETA 00:05:19
Time 00:01:40 | Step 607665 / 683000 | TPS 244.595 | ETA 00:05:07
Time 00:01:50 | Step 610137 / 683000 | TPS 247.168 | ETA 00:04:54
Time 00:02:00 | Step 612546 / 683000 | TPS 240.856 | ETA 00:04:52
Time 00:02:10 | Step 614991 / 683000 | TPS 244.386 | ETA 00:04:38
Time 00:02:20 | Step 617367 / 683000 | TPS 237.461 | ETA 00:04:36
Time 00:02:30 | Step 619787 / 683000 | TPS 241.904 | ETA 00:04:21
Time 00:02:40 | Step 622206 / 683000 | TPS 241.835 | ETA 00:04:11
Time 00:02:50 | Step 624639 / 683000 | TPS 243.29 | ETA 00:03:59
Time 00:03:00 | Step 627040 / 683000 | TPS 240.088 | ETA 00:03:53
Time 00:03:10 | Step 629396 / 683000 | TPS 235.485 | ETA 00:03:47
Time 00:03:20 | Step 631803 / 683000 | TPS 240.601 | ETA 00:03:32
Time 00:03:30 | Step 634175 / 683000 | TPS 237.153 | ETA 00:03:25
Time 00:03:40 | Step 636552 / 683000 | TPS 237.63 | ETA 00:03:15
Time 00:03:50 | Step 638982 / 683000 | TPS 242.808 | ETA 00:03:01
Time 00:04:00 | Step 641326 / 683000 | TPS 234.186 | ETA 00:02:57
Time 00:04:10 | Step 643774 / 683000 | TPS 244.788 | ETA 00:02:40
Time 00:04:20 | Step 646157 / 683000 | TPS 238.262 | ETA 00:02:34
Time 00:04:30 | Step 648549 / 683000 | TPS 239.195 | ETA 00:02:24
Time 00:04:40 | Step 650997 / 683000 | TPS 244.724 | ETA 00:02:10
Time 00:04:50 | Step 653439 / 683000 | TPS 244.079 | ETA 00:02:01
Time 00:05:00 | Step 655885 / 683000 | TPS 244.403 | ETA 00:01:50
Time 00:05:10 | Step 658281 / 683000 | TPS 239.564 | ETA 00:01:43
Time 00:05:20 | Step 660699 / 683000 | TPS 241.588 | ETA 00:01:32
Time 00:05:30 | Step 663107 / 683000 | TPS 240.662 | ETA 00:01:22
Time 00:05:40 | Step 666301 / 683000 | TPS 313.864 | ETA 00:00:53
Time 00:05:50 | Step 672901 / 683000 | TPS 651.075 | ETA 00:00:15
Time 00:06:00 | Step 679501 / 683000 | TPS 650.458 | ETA 00:00:05
Time 00:06:05 | Step 683000 / 683000 | TPS 677.843 | ETA 00:00:00
Average TPS: 273.406
---------
-- Neighborlist stats:
32198 normal updates / 334 forced updates / 0 dangerous updates
n_neigh_min: 0 / n_neigh_max: 0 / n_neigh_avg: 0
shortest rebuild period: 1
** run complete **
