[33mWARNING: Skipping user bind, non existent bind point (file) in container: '/usr/bin/nvidia-smi'
[0m[33mWARNING: Skipping user bind, non existent bind point (file) in container: '/usr/bin/nvidia-debugdump'
[0m[33mWARNING: Skipping user bind, non existent bind point (file) in container: '/usr/bin/nvidia-persistenced'
[0m[33mWARNING: Skipping user bind, non existent bind point (file) in container: '/usr/bin/nvidia-cuda-mps-control'
[0m[33mWARNING: Skipping user bind, non existent bind point (file) in container: '/usr/bin/nvidia-cuda-mps-server'
[0mHOOMD-blue 2.3.5 CUDA (8.0) DOUBLE HPMC_MIXED TBB SSE SSE2 
Compiled: 10/08/18
Copyright 2009-2018 The Regents of the University of Michigan.
-----
You are using HOOMD-blue. Please cite the following:
* J A Anderson, C D Lorenz, and A Travesset. "General purpose molecular dynamics
  simulations fully implemented on graphics processing units", Journal of
  Computational Physics 227 (2008) 5342--5359
* J Glaser, T D Nguyen, J A Anderson, P Liu, F Spiga, J A Millan, D C Morse, and
  S C Glotzer. "Strong scaling of general-purpose molecular dynamics simulations
  on GPUs", Computer Physics Communications 192 (2015) 97--107
-----
notice(2): This system is not compute exclusive, using local rank to select GPUs
HOOMD-blue is running on the following GPU(s):
 [0]            Tesla K20m  13 SM_3.5 @ 0.706 GHz, 4743 MiB DRAM
Ramp16.py:049  |  system = hoomd.init.read_gsd(ramp_file,frame = -1)
notice(2): Group "all" created containing 1004 particles
Ramp16.py:053  |  rigid = hoomd.md.constrain.rigid();
notice(2): constrain.rigid(): Creating 1000 rigid bodies (adding 8000 particles)
Ramp16.py:065  |  nl = hoomd.md.nlist.tree()
-----
You are using tree neighbor lists. Please cite the following:
* M P Howard, J A Anderson, A Nikoubashman, S C Glotzer, and A Z
  Panagiotopoulos. "Efficient neighbor list calculation for molecular simulation
  of colloidal systems using graphics processing units", Computer Physics
  Communications 203 (2016) 45--52
-----
Ramp16.py:067  |  lj = hoomd.md.pair.lj(r_cut = 3.5, nlist=nl)
Ramp16.py:068  |  lj.set_params(mode='shift')
Ramp16.py:072  |  lj.pair_coeff.set('NP','NP', epsilon = 1.0, sigma = 5.0);
Ramp16.py:073  |  lj.pair_coeff.set('M' ,'M' , epsilon = 1.0, sigma = 1.0);
Ramp16.py:074  |  lj.pair_coeff.set('A' ,'A' , epsilon = 1.0, sigma = 1.0);
Ramp16.py:075  |  lj.pair_coeff.set('M' ,'A' , epsilon = 1.0, sigma = 1.0);
Ramp16.py:076  |  lj.pair_coeff.set('NP','M' , epsilon = 1.0, sigma = 3.0);
Ramp16.py:077  |  lj.pair_coeff.set('NP','A' , epsilon = 1.0, sigma = 3.0);
Ramp16.py:081  |  hoomd.md.integrate.mode_standard(dt = 0.005);
Ramp16.py:085  |  nanoparticles = hoomd.group.type(name = 'Nano_Particles', type = 'NP');
notice(2): Group "Nano_Particles" created containing 4 particles
Ramp16.py:086  |  mesogens = hoomd.group.rigid_center();
notice(2): Group "rigid_center" created containing 1000 particles
notice(2): Group "NP_Mes" created containing 1004 particles
Ramp16.py:092  |  npt = hoomd.md.integrate.npt(group = groupNP_mes, kT = temp, tau = 3.5, tauP = 3.5, P = pressure);
Ramp16.py:101  |  log = hoomd.analyze.log(filename = log_file,
                         quantities = ['num_particles',
                                     'ndof',
                                     'translational_ndof',
                                     'rotational_ndof',
                                     'potential_energy',
                                     'kinetic_energy',
                                     'translational_kinetic_energy',
                                     'rotational_kinetic_energy',
                                     'temperature',
                                     'pressure',
                                      'volume'],
                         period = 1e3,
                         overwrite = True);
Ramp16.py:117  |                 group = hoomd.group.all(),
Ramp16.py:115  |  gsd = hoomd.dump.gsd(gsd_file,
               period = 1e3,
               group = hoomd.group.all(),
               overwrite = True); 
Ramp16.py:119  |  meso_gsd = hoomd.dump.gsd(meso_gsd_file,
               period = 1e3,
               group = groupNP_mes,
               overwrite = True); 
Ramp16.py:130  |  hoomd.run(run_time)
notice(2): -- Neighborlist exclusion statistics -- :
notice(2): Particles with 0 exclusions             : 9004
notice(2): Neighbors included by diameter          : no
notice(2): Neighbors excluded when in the same body: yes
** starting run **
Time 00:00:10 | Step 497443 / 595000 | TPS 244.161 | ETA 00:06:39
Time 00:00:20 | Step 500147 / 595000 | TPS 270.252 | ETA 00:05:50
Time 00:00:30 | Step 502801 / 595000 | TPS 265.2 | ETA 00:05:47
Time 00:00:40 | Step 505438 / 595000 | TPS 263.607 | ETA 00:05:39
Time 00:00:50 | Step 508040 / 595000 | TPS 260.199 | ETA 00:05:34
Time 00:01:00 | Step 510616 / 595000 | TPS 257.542 | ETA 00:05:27
Time 00:01:10 | Step 513189 / 595000 | TPS 257.24 | ETA 00:05:18
Time 00:01:20 | Step 515741 / 595000 | TPS 255.107 | ETA 00:05:10
Time 00:01:30 | Step 518225 / 595000 | TPS 248.272 | ETA 00:05:09
Time 00:01:40 | Step 520723 / 595000 | TPS 249.634 | ETA 00:04:57
Time 00:01:50 | Step 523229 / 595000 | TPS 250.574 | ETA 00:04:46
Time 00:02:00 | Step 525712 / 595000 | TPS 248.291 | ETA 00:04:39
Time 00:02:10 | Step 528252 / 595000 | TPS 253.895 | ETA 00:04:22
Time 00:02:20 | Step 530744 / 595000 | TPS 249.039 | ETA 00:04:18
Time 00:02:30 | Step 533268 / 595000 | TPS 252.295 | ETA 00:04:04
Time 00:02:40 | Step 535747 / 595000 | TPS 247.859 | ETA 00:03:59
Time 00:02:50 | Step 538223 / 595000 | TPS 247.589 | ETA 00:03:49
Time 00:03:00 | Step 540697 / 595000 | TPS 247.195 | ETA 00:03:39
Time 00:03:10 | Step 543129 / 595000 | TPS 243.058 | ETA 00:03:33
Time 00:03:20 | Step 545616 / 595000 | TPS 248.526 | ETA 00:03:18
Time 00:03:30 | Step 548095 / 595000 | TPS 247.722 | ETA 00:03:09
Time 00:03:40 | Step 550528 / 595000 | TPS 243.222 | ETA 00:03:02
Time 00:03:50 | Step 553010 / 595000 | TPS 248.08 | ETA 00:02:49
Time 00:04:00 | Step 555469 / 595000 | TPS 245.797 | ETA 00:02:40
Time 00:04:10 | Step 557918 / 595000 | TPS 244.763 | ETA 00:02:31
Time 00:04:20 | Step 560383 / 595000 | TPS 246.351 | ETA 00:02:20
Time 00:04:30 | Step 562888 / 595000 | TPS 250.277 | ETA 00:02:08
Time 00:04:40 | Step 565422 / 595000 | TPS 253.183 | ETA 00:01:56
Time 00:04:50 | Step 567888 / 595000 | TPS 246.469 | ETA 00:01:50
Time 00:05:00 | Step 570370 / 595000 | TPS 248.19 | ETA 00:01:39
Time 00:05:10 | Step 572910 / 595000 | TPS 253.808 | ETA 00:01:27
Time 00:05:20 | Step 575361 / 595000 | TPS 245.087 | ETA 00:01:20
Time 00:05:30 | Step 577838 / 595000 | TPS 247.491 | ETA 00:01:09
Time 00:05:40 | Step 580285 / 595000 | TPS 244.64 | ETA 00:01:00
Time 00:05:50 | Step 582754 / 595000 | TPS 246.745 | ETA 00:00:49
Time 00:06:00 | Step 585294 / 595000 | TPS 253.823 | ETA 00:00:38
Time 00:06:10 | Step 589501 / 595000 | TPS 416.399 | ETA 00:00:13
Time 00:06:18 | Step 595000 / 595000 | TPS 660.789 | ETA 00:00:00
Average TPS: 264.136
---------
-- Neighborlist stats:
36108 normal updates / 335 forced updates / 0 dangerous updates
n_neigh_min: 0 / n_neigh_max: 0 / n_neigh_avg: 0
shortest rebuild period: 1
** run complete **
[33mWARNING: Skipping user bind, non existent bind point (file) in container: '/usr/bin/nvidia-smi'
[0m[33mWARNING: Skipping user bind, non existent bind point (file) in container: '/usr/bin/nvidia-debugdump'
[0m[33mWARNING: Skipping user bind, non existent bind point (file) in container: '/usr/bin/nvidia-persistenced'
[0m[33mWARNING: Skipping user bind, non existent bind point (file) in container: '/usr/bin/nvidia-cuda-mps-control'
[0m[33mWARNING: Skipping user bind, non existent bind point (file) in container: '/usr/bin/nvidia-cuda-mps-server'
[0mHOOMD-blue 2.3.5 CUDA (8.0) DOUBLE HPMC_MIXED TBB SSE SSE2 
Compiled: 10/08/18
Copyright 2009-2018 The Regents of the University of Michigan.
-----
You are using HOOMD-blue. Please cite the following:
* J A Anderson, C D Lorenz, and A Travesset. "General purpose molecular dynamics
  simulations fully implemented on graphics processing units", Journal of
  Computational Physics 227 (2008) 5342--5359
* J Glaser, T D Nguyen, J A Anderson, P Liu, F Spiga, J A Millan, D C Morse, and
  S C Glotzer. "Strong scaling of general-purpose molecular dynamics simulations
  on GPUs", Computer Physics Communications 192 (2015) 97--107
-----
notice(2): This system is not compute exclusive, using local rank to select GPUs
HOOMD-blue is running on the following GPU(s):
 [0]            Tesla K20m  13 SM_3.5 @ 0.706 GHz, 4743 MiB DRAM
Ramp18.py:049  |  system = hoomd.init.read_gsd(ramp_file,frame = -1)
notice(2): Group "all" created containing 1004 particles
Ramp18.py:053  |  rigid = hoomd.md.constrain.rigid();
notice(2): constrain.rigid(): Creating 1000 rigid bodies (adding 8000 particles)
Ramp18.py:065  |  nl = hoomd.md.nlist.tree()
-----
You are using tree neighbor lists. Please cite the following:
* M P Howard, J A Anderson, A Nikoubashman, S C Glotzer, and A Z
  Panagiotopoulos. "Efficient neighbor list calculation for molecular simulation
  of colloidal systems using graphics processing units", Computer Physics
  Communications 203 (2016) 45--52
-----
Ramp18.py:067  |  lj = hoomd.md.pair.lj(r_cut = 3.5, nlist=nl)
Ramp18.py:068  |  lj.set_params(mode='shift')
Ramp18.py:072  |  lj.pair_coeff.set('NP','NP', epsilon = 1.0, sigma = 5.0);
Ramp18.py:073  |  lj.pair_coeff.set('M' ,'M' , epsilon = 1.0, sigma = 1.0);
Ramp18.py:074  |  lj.pair_coeff.set('A' ,'A' , epsilon = 1.0, sigma = 1.0);
Ramp18.py:075  |  lj.pair_coeff.set('M' ,'A' , epsilon = 1.0, sigma = 1.0);
Ramp18.py:076  |  lj.pair_coeff.set('NP','M' , epsilon = 1.0, sigma = 3.0);
Ramp18.py:077  |  lj.pair_coeff.set('NP','A' , epsilon = 1.0, sigma = 3.0);
Ramp18.py:081  |  hoomd.md.integrate.mode_standard(dt = 0.005);
Ramp18.py:085  |  nanoparticles = hoomd.group.type(name = 'Nano_Particles', type = 'NP');
notice(2): Group "Nano_Particles" created containing 4 particles
Ramp18.py:086  |  mesogens = hoomd.group.rigid_center();
notice(2): Group "rigid_center" created containing 1000 particles
notice(2): Group "NP_Mes" created containing 1004 particles
Ramp18.py:092  |  npt = hoomd.md.integrate.npt(group = groupNP_mes, kT = temp, tau = 3.5, tauP = 3.5, P = pressure);
Ramp18.py:101  |  log = hoomd.analyze.log(filename = log_file,
                         quantities = ['num_particles',
                                     'ndof',
                                     'translational_ndof',
                                     'rotational_ndof',
                                     'potential_energy',
                                     'kinetic_energy',
                                     'translational_kinetic_energy',
                                     'rotational_kinetic_energy',
                                     'temperature',
                                     'pressure',
                                      'volume'],
                         period = 1e3,
                         overwrite = True);
Ramp18.py:117  |                 group = hoomd.group.all(),
Ramp18.py:115  |  gsd = hoomd.dump.gsd(gsd_file,
               period = 1e3,
               group = hoomd.group.all(),
               overwrite = True); 
Ramp18.py:119  |  meso_gsd = hoomd.dump.gsd(meso_gsd_file,
               period = 1e3,
               group = groupNP_mes,
               overwrite = True); 
Ramp18.py:130  |  hoomd.run(run_time)
notice(2): -- Neighborlist exclusion statistics -- :
notice(2): Particles with 0 exclusions             : 9004
notice(2): Neighbors included by diameter          : no
notice(2): Neighbors excluded when in the same body: yes
** starting run **
Time 00:00:10 | Step 599101 / 694000 | TPS 496.586 | ETA 00:03:11
Time 00:00:20 | Step 606001 / 694000 | TPS 675.709 | ETA 00:02:10
Time 00:00:30 | Step 611701 / 694000 | TPS 567.319 | ETA 00:02:25
Time 00:00:41 | Step 616801 / 694000 | TPS 494.719 | ETA 00:02:36
Time 00:00:51 | Step 620701 / 694000 | TPS 381.569 | ETA 00:03:12
Time 00:01:01 | Step 624601 / 694000 | TPS 381.904 | ETA 00:03:01
Time 00:01:11 | Step 630901 / 694000 | TPS 609.951 | ETA 00:01:43
Time 00:01:22 | Step 637201 / 694000 | TPS 617.653 | ETA 00:01:31
Time 00:01:32 | Step 643801 / 694000 | TPS 641.134 | ETA 00:01:18
Time 00:01:42 | Step 650701 / 694000 | TPS 685.516 | ETA 00:01:03
Time 00:01:52 | Step 657601 / 694000 | TPS 685.554 | ETA 00:00:53
Time 00:02:02 | Step 664501 / 694000 | TPS 685.552 | ETA 00:00:43
Time 00:02:12 | Step 671401 / 694000 | TPS 685.312 | ETA 00:00:32
Time 00:02:22 | Step 678301 / 694000 | TPS 685.364 | ETA 00:00:22
Time 00:02:32 | Step 685201 / 694000 | TPS 685.351 | ETA 00:00:12
Time 00:02:42 | Step 692101 / 694000 | TPS 685.381 | ETA 00:00:02
Time 00:02:45 | Step 694000 / 694000 | TPS 713.977 | ETA 00:00:00
Average TPS: 605.247
---------
-- Neighborlist stats:
0 normal updates / 335 forced updates / 0 dangerous updates
n_neigh_min: 0 / n_neigh_max: 0 / n_neigh_avg: 0
shortest rebuild period: 100
** run complete **
