[33mWARNING: Skipping user bind, non existent bind point (file) in container: '/usr/bin/nvidia-smi'
[0m[33mWARNING: Skipping user bind, non existent bind point (file) in container: '/usr/bin/nvidia-debugdump'
[0m[33mWARNING: Skipping user bind, non existent bind point (file) in container: '/usr/bin/nvidia-persistenced'
[0m[33mWARNING: Skipping user bind, non existent bind point (file) in container: '/usr/bin/nvidia-cuda-mps-control'
[0m[33mWARNING: Skipping user bind, non existent bind point (file) in container: '/usr/bin/nvidia-cuda-mps-server'
[0m**ERROR**: nlist.tree(): Particle 852 is out of bounds (x: 412.433, y: -75.7155, z: -167.348, fx: 11.3348, fy: -1.48909, fz:-3.89633)
HOOMD-blue 2.3.5 CUDA (8.0) DOUBLE HPMC_MIXED TBB SSE SSE2 
Compiled: 10/08/18
Copyright 2009-2018 The Regents of the University of Michigan.
-----
You are using HOOMD-blue. Please cite the following:
* J A Anderson, C D Lorenz, and A Travesset. "General purpose molecular dynamics
  simulations fully implemented on graphics processing units", Journal of
  Computational Physics 227 (2008) 5342--5359
* J Glaser, T D Nguyen, J A Anderson, P Liu, F Spiga, J A Millan, D C Morse, and
  S C Glotzer. "Strong scaling of general-purpose molecular dynamics simulations
  on GPUs", Computer Physics Communications 192 (2015) 97--107
-----
notice(2): This system is not compute exclusive, using local rank to select GPUs
HOOMD-blue is running on the following GPU(s):
 [0]            Tesla K20m  13 SM_3.5 @ 0.758 GHz, 4743 MiB DRAM
Ramp18.py:049  |  system = hoomd.init.read_gsd(ramp_file,frame = -1)
notice(2): Group "all" created containing 1004 particles
Ramp18.py:053  |  rigid = hoomd.md.constrain.rigid();
notice(2): constrain.rigid(): Creating 1000 rigid bodies (adding 8000 particles)
Ramp18.py:065  |  nl = hoomd.md.nlist.tree()
-----
You are using tree neighbor lists. Please cite the following:
* M P Howard, J A Anderson, A Nikoubashman, S C Glotzer, and A Z
  Panagiotopoulos. "Efficient neighbor list calculation for molecular simulation
  of colloidal systems using graphics processing units", Computer Physics
  Communications 203 (2016) 45--52
-----
Ramp18.py:067  |  lj = hoomd.md.pair.lj(r_cut = 3.5, nlist=nl)
Ramp18.py:068  |  lj.set_params(mode='shift')
Ramp18.py:072  |  lj.pair_coeff.set('NP','NP', epsilon = 1.0, sigma = 5.0);
Ramp18.py:073  |  lj.pair_coeff.set('M' ,'M' , epsilon = 1.0, sigma = 1.0);
Ramp18.py:074  |  lj.pair_coeff.set('A' ,'A' , epsilon = 1.0, sigma = 1.0);
Ramp18.py:075  |  lj.pair_coeff.set('M' ,'A' , epsilon = 1.0, sigma = 1.0);
Ramp18.py:076  |  lj.pair_coeff.set('NP','M' , epsilon = 1.0, sigma = 3.0);
Ramp18.py:077  |  lj.pair_coeff.set('NP','A' , epsilon = 1.0, sigma = 3.0);
Ramp18.py:081  |  hoomd.md.integrate.mode_standard(dt = 0.005);
Ramp18.py:085  |  nanoparticles = hoomd.group.type(name = 'Nano_Particles', type = 'NP');
notice(2): Group "Nano_Particles" created containing 4 particles
Ramp18.py:086  |  mesogens = hoomd.group.rigid_center();
notice(2): Group "rigid_center" created containing 1000 particles
notice(2): Group "NP_Mes" created containing 1004 particles
Ramp18.py:092  |  npt = hoomd.md.integrate.npt(group = groupNP_mes, kT = temp, tau = 3.9, tauP = 3.9, P = pressure);
Ramp18.py:101  |  log = hoomd.analyze.log(filename = log_file,
                         quantities = ['num_particles',
                                     'ndof',
                                     'translational_ndof',
                                     'rotational_ndof',
                                     'potential_energy',
                                     'kinetic_energy',
                                     'translational_kinetic_energy',
                                     'rotational_kinetic_energy',
                                     'temperature',
                                     'pressure',
                                      'volume'],
                         period = 1e3,
                         overwrite = True);
Ramp18.py:117  |                 group = hoomd.group.all(),
Ramp18.py:115  |  gsd = hoomd.dump.gsd(gsd_file,
               period = 1e3,
               group = hoomd.group.all(),
               overwrite = True); 
Ramp18.py:119  |  meso_gsd = hoomd.dump.gsd(meso_gsd_file,
               period = 1e3,
               group = groupNP_mes,
               overwrite = True); 
Ramp18.py:130  |  hoomd.run(run_time)
notice(2): -- Neighborlist exclusion statistics -- :
notice(2): Particles with 0 exclusions             : 9004
notice(2): Neighbors included by diameter          : no
notice(2): Neighbors excluded when in the same body: yes
** starting run **
Time 00:00:10 | Step 596426 / 694000 | TPS 242.404 | ETA 00:06:42
Time 00:00:20 | Step 599076 / 694000 | TPS 264.989 | ETA 00:05:58
Time 00:00:30 | Step 601769 / 694000 | TPS 269.223 | ETA 00:05:42
Time 00:00:40 | Step 604481 / 694000 | TPS 271.198 | ETA 00:05:30
Time 00:00:50 | Step 607143 / 694000 | TPS 266.086 | ETA 00:05:26
Time 00:01:00 | Step 609763 / 694000 | TPS 261.958 | ETA 00:05:21
Time 00:01:10 | Step 612412 / 694000 | TPS 264.809 | ETA 00:05:08
Time 00:01:20 | Step 615041 / 694000 | TPS 262.699 | ETA 00:05:00
Time 00:01:30 | Step 617688 / 694000 | TPS 264.685 | ETA 00:04:48
Time 00:01:40 | Step 620274 / 694000 | TPS 258.59 | ETA 00:04:45
Time 00:01:50 | Step 622847 / 694000 | TPS 257.196 | ETA 00:04:36
Time 00:02:00 | Step 625449 / 694000 | TPS 260.167 | ETA 00:04:23
Time 00:02:10 | Step 628101 / 694000 | TPS 265.117 | ETA 00:04:08
Time 00:02:20 | Step 630741 / 694000 | TPS 263.821 | ETA 00:03:59
Time 00:02:30 | Step 633399 / 694000 | TPS 265.591 | ETA 00:03:48
Time 00:02:40 | Step 636032 / 694000 | TPS 263.223 | ETA 00:03:40
Time 00:02:50 | Step 638657 / 694000 | TPS 262.4 | ETA 00:03:30
Time 00:03:00 | Step 641294 / 694000 | TPS 263.533 | ETA 00:03:19
Time 00:03:10 | Step 643902 / 694000 | TPS 260.609 | ETA 00:03:12
Time 00:03:20 | Step 646480 / 694000 | TPS 257.633 | ETA 00:03:04
Time 00:03:30 | Step 649052 / 694000 | TPS 257.084 | ETA 00:02:54
Time 00:03:40 | Step 651647 / 694000 | TPS 259.395 | ETA 00:02:43
Time 00:03:50 | Step 654216 / 694000 | TPS 256.717 | ETA 00:02:34
Time 00:04:00 | Step 656841 / 694000 | TPS 262.44 | ETA 00:02:21
Time 00:04:10 | Step 659440 / 694000 | TPS 259.792 | ETA 00:02:13
Time 00:04:20 | Step 662039 / 694000 | TPS 259.871 | ETA 00:02:02
Time 00:04:30 | Step 664616 / 694000 | TPS 257.525 | ETA 00:01:54
Time 00:04:40 | Step 667217 / 694000 | TPS 260.098 | ETA 00:01:42
Time 00:04:50 | Step 669820 / 694000 | TPS 260.124 | ETA 00:01:32
Time 00:05:00 | Step 672368 / 694000 | TPS 254.667 | ETA 00:01:24
Time 00:05:10 | Step 674924 / 694000 | TPS 255.406 | ETA 00:01:14
Time 00:05:20 | Step 677552 / 694000 | TPS 262.754 | ETA 00:01:02
Time 00:05:30 | Step 680207 / 694000 | TPS 265.301 | ETA 00:00:51
Time 00:05:40 | Step 682858 / 694000 | TPS 265.097 | ETA 00:00:42
Traceback (most recent call last):
  File "Ramp18.py", line 130, in <module>
    hoomd.run(run_time)
  File "/usr/local/lib/python3.5/dist-packages/hoomd/__init__.py", line 194, in run
    context.current.system.run(int(tsteps), callback_period, callback, limit_hours, int(limit_multiple));
RuntimeError: Error updating neighborlist
