[33mWARNING: Skipping user bind, non existent bind point (file) in container: '/usr/bin/nvidia-smi'
[0m[33mWARNING: Skipping user bind, non existent bind point (file) in container: '/usr/bin/nvidia-debugdump'
[0m[33mWARNING: Skipping user bind, non existent bind point (file) in container: '/usr/bin/nvidia-persistenced'
[0m[33mWARNING: Skipping user bind, non existent bind point (file) in container: '/usr/bin/nvidia-cuda-mps-control'
[0m[33mWARNING: Skipping user bind, non existent bind point (file) in container: '/usr/bin/nvidia-cuda-mps-server'
[0mHOOMD-blue 2.3.5 CUDA (8.0) DOUBLE HPMC_MIXED TBB SSE SSE2 
Compiled: 10/08/18
Copyright 2009-2018 The Regents of the University of Michigan.
-----
You are using HOOMD-blue. Please cite the following:
* J A Anderson, C D Lorenz, and A Travesset. "General purpose molecular dynamics
  simulations fully implemented on graphics processing units", Journal of
  Computational Physics 227 (2008) 5342--5359
* J Glaser, T D Nguyen, J A Anderson, P Liu, F Spiga, J A Millan, D C Morse, and
  S C Glotzer. "Strong scaling of general-purpose molecular dynamics simulations
  on GPUs", Computer Physics Communications 192 (2015) 97--107
-----
notice(2): This system is not compute exclusive, using local rank to select GPUs
HOOMD-blue is running on the following GPU(s):
 [0]            Tesla K20m  13 SM_3.5 @ 0.758 GHz, 4743 MiB DRAM
Ramp18.py:049  |  system = hoomd.init.read_gsd(ramp_file,frame = -1)
notice(2): Group "all" created containing 1004 particles
Ramp18.py:053  |  rigid = hoomd.md.constrain.rigid();
notice(2): constrain.rigid(): Creating 1000 rigid bodies (adding 8000 particles)
Ramp18.py:065  |  nl = hoomd.md.nlist.tree()
-----
You are using tree neighbor lists. Please cite the following:
* M P Howard, J A Anderson, A Nikoubashman, S C Glotzer, and A Z
  Panagiotopoulos. "Efficient neighbor list calculation for molecular simulation
  of colloidal systems using graphics processing units", Computer Physics
  Communications 203 (2016) 45--52
-----
Ramp18.py:067  |  lj = hoomd.md.pair.lj(r_cut = 3.5, nlist=nl)
Ramp18.py:068  |  lj.set_params(mode='shift')
Ramp18.py:072  |  lj.pair_coeff.set('NP','NP', epsilon = 1.0, sigma = 5.0);
Ramp18.py:073  |  lj.pair_coeff.set('M' ,'M' , epsilon = 1.0, sigma = 1.0);
Ramp18.py:074  |  lj.pair_coeff.set('A' ,'A' , epsilon = 1.0, sigma = 1.0);
Ramp18.py:075  |  lj.pair_coeff.set('M' ,'A' , epsilon = 1.0, sigma = 1.0);
Ramp18.py:076  |  lj.pair_coeff.set('NP','M' , epsilon = 1.0, sigma = 3.0);
Ramp18.py:077  |  lj.pair_coeff.set('NP','A' , epsilon = 1.0, sigma = 3.0);
Ramp18.py:081  |  hoomd.md.integrate.mode_standard(dt = 0.005);
Ramp18.py:085  |  nanoparticles = hoomd.group.type(name = 'Nano_Particles', type = 'NP');
notice(2): Group "Nano_Particles" created containing 4 particles
Ramp18.py:086  |  mesogens = hoomd.group.rigid_center();
notice(2): Group "rigid_center" created containing 1000 particles
notice(2): Group "NP_Mes" created containing 1004 particles
Ramp18.py:092  |  npt = hoomd.md.integrate.npt(group = groupNP_mes, kT = temp, tau = 4.5, tauP = 4.5, P = pressure);
Ramp18.py:101  |  log = hoomd.analyze.log(filename = log_file,
                         quantities = ['num_particles',
                                     'ndof',
                                     'translational_ndof',
                                     'rotational_ndof',
                                     'potential_energy',
                                     'kinetic_energy',
                                     'translational_kinetic_energy',
                                     'rotational_kinetic_energy',
                                     'temperature',
                                     'pressure',
                                      'volume'],
                         period = 1e3,
                         overwrite = True);
Ramp18.py:117  |                 group = hoomd.group.all(),
Ramp18.py:115  |  gsd = hoomd.dump.gsd(gsd_file,
               period = 1e3,
               group = hoomd.group.all(),
               overwrite = True); 
Ramp18.py:119  |  meso_gsd = hoomd.dump.gsd(meso_gsd_file,
               period = 1e3,
               group = groupNP_mes,
               overwrite = True); 
Ramp18.py:130  |  hoomd.run(run_time)
notice(2): -- Neighborlist exclusion statistics -- :
notice(2): Particles with 0 exclusions             : 9004
notice(2): Neighbors included by diameter          : no
notice(2): Neighbors excluded when in the same body: yes
** starting run **
Time 00:00:10 | Step 596389 / 669000 | TPS 238.762 | ETA 00:05:04
Time 00:00:20 | Step 599061 / 669000 | TPS 267.114 | ETA 00:04:21
Time 00:00:30 | Step 601754 / 669000 | TPS 269.277 | ETA 00:04:09
Time 00:00:40 | Step 604399 / 669000 | TPS 264.426 | ETA 00:04:04
Time 00:00:50 | Step 607044 / 669000 | TPS 264.453 | ETA 00:03:54
Time 00:01:00 | Step 609670 / 669000 | TPS 262.384 | ETA 00:03:46
Time 00:01:10 | Step 612274 / 669000 | TPS 260.259 | ETA 00:03:37
Time 00:01:20 | Step 614903 / 669000 | TPS 262.839 | ETA 00:03:25
Time 00:01:30 | Step 617562 / 669000 | TPS 265.821 | ETA 00:03:13
Time 00:01:40 | Step 620205 / 669000 | TPS 264.106 | ETA 00:03:04
Time 00:01:50 | Step 622824 / 669000 | TPS 261.827 | ETA 00:02:56
Time 00:02:00 | Step 625421 / 669000 | TPS 259.497 | ETA 00:02:47
Time 00:02:10 | Step 628056 / 669000 | TPS 263.465 | ETA 00:02:35
Time 00:02:20 | Step 630612 / 669000 | TPS 255.388 | ETA 00:02:30
Time 00:02:30 | Step 633206 / 669000 | TPS 259.398 | ETA 00:02:17
Time 00:02:40 | Step 635793 / 669000 | TPS 258.692 | ETA 00:02:08
Time 00:02:50 | Step 638350 / 669000 | TPS 255.542 | ETA 00:01:59
Time 00:03:00 | Step 640966 / 669000 | TPS 261.561 | ETA 00:01:47
Time 00:03:10 | Step 643573 / 669000 | TPS 260.525 | ETA 00:01:37
Time 00:03:20 | Step 646159 / 669000 | TPS 258.534 | ETA 00:01:28
Time 00:03:30 | Step 648768 / 669000 | TPS 260.733 | ETA 00:01:17
Time 00:03:40 | Step 651371 / 669000 | TPS 260.169 | ETA 00:01:07
Time 00:03:50 | Step 653956 / 669000 | TPS 258.43 | ETA 00:00:58
Time 00:04:00 | Step 656509 / 669000 | TPS 255.088 | ETA 00:00:48
Time 00:04:10 | Step 659057 / 669000 | TPS 254.616 | ETA 00:00:39
Time 00:04:20 | Step 661668 / 669000 | TPS 260.911 | ETA 00:00:28
Time 00:04:30 | Step 664252 / 669000 | TPS 258.319 | ETA 00:00:18
Time 00:04:40 | Step 666820 / 669000 | TPS 256.572 | ETA 00:00:08
Time 00:04:48 | Step 669000 / 669000 | TPS 262.828 | ETA 00:00:00
Average TPS: 260.036
---------
-- Neighborlist stats:
29408 normal updates / 251 forced updates / 0 dangerous updates
n_neigh_min: 47 / n_neigh_max: 194 / n_neigh_avg: 155.494
shortest rebuild period: 2
** run complete **
