[33mWARNING: Skipping user bind, non existent bind point (file) in container: '/usr/bin/nvidia-smi'
[0m[33mWARNING: Skipping user bind, non existent bind point (file) in container: '/usr/bin/nvidia-debugdump'
[0m[33mWARNING: Skipping user bind, non existent bind point (file) in container: '/usr/bin/nvidia-persistenced'
[0m[33mWARNING: Skipping user bind, non existent bind point (file) in container: '/usr/bin/nvidia-cuda-mps-control'
[0m[33mWARNING: Skipping user bind, non existent bind point (file) in container: '/usr/bin/nvidia-cuda-mps-server'
[0mHOOMD-blue 2.3.5 CUDA (8.0) DOUBLE HPMC_MIXED TBB SSE SSE2 
Compiled: 10/08/18
Copyright 2009-2018 The Regents of the University of Michigan.
-----
You are using HOOMD-blue. Please cite the following:
* J A Anderson, C D Lorenz, and A Travesset. "General purpose molecular dynamics
  simulations fully implemented on graphics processing units", Journal of
  Computational Physics 227 (2008) 5342--5359
* J Glaser, T D Nguyen, J A Anderson, P Liu, F Spiga, J A Millan, D C Morse, and
  S C Glotzer. "Strong scaling of general-purpose molecular dynamics simulations
  on GPUs", Computer Physics Communications 192 (2015) 97--107
-----
notice(2): This system is not compute exclusive, using local rank to select GPUs
HOOMD-blue is running on the following GPU(s):
 [0]            Tesla K20m  13 SM_3.5 @ 0.706 GHz, 4743 MiB DRAM
Ramp_66.py:048  |  system = hoomd.init.read_gsd(ramp_file, frame = -1);
notice(2): Group "all" created containing 1004 particles
Ramp_66.py:052  |  rigid = hoomd.md.constrain.rigid();
notice(2): constrain.rigid(): Creating 1000 rigid bodies (adding 8000 particles)
Ramp_66.py:064  |  nl = hoomd.md.nlist.tree();
-----
You are using tree neighbor lists. Please cite the following:
* M P Howard, J A Anderson, A Nikoubashman, S C Glotzer, and A Z
  Panagiotopoulos. "Efficient neighbor list calculation for molecular simulation
  of colloidal systems using graphics processing units", Computer Physics
  Communications 203 (2016) 45--52
-----
Ramp_66.py:066  |  lj = hoomd.md.pair.lj(r_cut = 3.5, nlist = nl)
Ramp_66.py:067  |  lj.set_params(mode = 'shift')
Ramp_66.py:071  |  lj.pair_coeff.set('NP','NP', epsilon = 1.0, sigma = 5.0);
Ramp_66.py:072  |  lj.pair_coeff.set('M' ,'M' , epsilon = 1.0, sigma = 1.0);
Ramp_66.py:073  |  lj.pair_coeff.set('A' ,'A' , epsilon = 1.0, sigma = 1.0);
Ramp_66.py:074  |  lj.pair_coeff.set('M' ,'A' , epsilon = 1.0, sigma = 1.0);
Ramp_66.py:075  |  lj.pair_coeff.set('NP','M' , epsilon = 1.0, sigma = 3.0);
Ramp_66.py:076  |  lj.pair_coeff.set('NP','A' , epsilon = 1.0, sigma = 3.0);
Ramp_66.py:080  |  hoomd.md.integrate.mode_standard(dt = 0.005);
Ramp_66.py:084  |  nanoparticles = hoomd.group.type(name = 'Nano_Particles', type = 'NP');
notice(2): Group "Nano_Particles" created containing 4 particles
Ramp_66.py:085  |  mesogens = hoomd.group.rigid_center();
notice(2): Group "rigid_center" created containing 1000 particles
notice(2): Group "NP_Mes" created containing 1004 particles
Ramp_66.py:092  |  npt = hoomd.md.integrate.npt(group = groupNP_mes, kT = temp, tau = 3.0, tauP = 3.0, P = p_max);
Ramp_66.py:101  |  log = hoomd.analyze.log(filename = log_file,
                         quantities = ['num_particles',
                                     'ndof',
                                     'translational_ndof',
                                     'rotational_ndof',
                                     'potential_energy',
                                     'kinetic_energy',
                                     'translational_kinetic_energy',
                                     'rotational_kinetic_energy',
                                     'temperature',
                                     'pressure',
                                      'volume'],
                         period = 1e3,
                         overwrite = True);
Ramp_66.py:117  |                 group = hoomd.group.all(),
Ramp_66.py:115  |  gsd = hoomd.dump.gsd(gsd_file,
               period = 1e3,
               group = hoomd.group.all(),
               overwrite = True); 
Ramp_66.py:119  |  meso_gsd = hoomd.dump.gsd(meso_gsd_file,
               period = 1e3,
               group = groupNP_mes,
               overwrite = True); 
Ramp_66.py:130  |  hoomd.run(steps_ramp)
notice(2): -- Neighborlist exclusion statistics -- :
notice(2): Particles with 0 exclusions             : 9004
notice(2): Neighbors included by diameter          : no
notice(2): Neighbors excluded when in the same body: yes
** starting run **
Time 00:00:10 | Step 543160 / 591000 | TPS 215.983 | ETA 00:03:41
Time 00:00:20 | Step 545527 / 591000 | TPS 236.58 | ETA 00:03:12
Time 00:00:30 | Step 547913 / 591000 | TPS 238.599 | ETA 00:03:00
Time 00:00:40 | Step 550260 / 591000 | TPS 234.617 | ETA 00:02:53
Time 00:00:50 | Step 552624 / 591000 | TPS 236.257 | ETA 00:02:42
Time 00:01:00 | Step 554983 / 591000 | TPS 235.732 | ETA 00:02:32
Time 00:01:10 | Step 557339 / 591000 | TPS 235.48 | ETA 00:02:22
Time 00:01:20 | Step 559689 / 591000 | TPS 234.877 | ETA 00:02:13
Time 00:01:30 | Step 562020 / 591000 | TPS 233.099 | ETA 00:02:04
Time 00:01:40 | Step 564345 / 591000 | TPS 232.49 | ETA 00:01:54
Time 00:01:50 | Step 566703 / 591000 | TPS 235.631 | ETA 00:01:43
Time 00:02:00 | Step 569032 / 591000 | TPS 232.804 | ETA 00:01:34
Time 00:02:10 | Step 571447 / 591000 | TPS 241.352 | ETA 00:01:21
Time 00:02:20 | Step 573802 / 591000 | TPS 235.467 | ETA 00:01:13
Time 00:02:30 | Step 576216 / 591000 | TPS 241.354 | ETA 00:01:01
Time 00:02:40 | Step 578566 / 591000 | TPS 234.918 | ETA 00:00:52
Time 00:02:50 | Step 580927 / 591000 | TPS 236.007 | ETA 00:00:42
Time 00:03:00 | Step 583298 / 591000 | TPS 237.091 | ETA 00:00:32
Time 00:03:10 | Step 585658 / 591000 | TPS 235.936 | ETA 00:00:22
Time 00:03:20 | Step 588027 / 591000 | TPS 236.79 | ETA 00:00:12
Time 00:03:30 | Step 590388 / 591000 | TPS 235.986 | ETA 00:00:02
Time 00:03:32 | Step 591000 / 591000 | TPS 241.039 | ETA 00:00:00
Average TPS: 235.169
---------
-- Neighborlist stats:
21599 normal updates / 167 forced updates / 0 dangerous updates
n_neigh_min: 29 / n_neigh_max: 172 / n_neigh_avg: 139.656
shortest rebuild period: 1
** run complete **
[33mWARNING: Skipping user bind, non existent bind point (file) in container: '/usr/bin/nvidia-smi'
[0m[33mWARNING: Skipping user bind, non existent bind point (file) in container: '/usr/bin/nvidia-debugdump'
[0m[33mWARNING: Skipping user bind, non existent bind point (file) in container: '/usr/bin/nvidia-persistenced'
[0m[33mWARNING: Skipping user bind, non existent bind point (file) in container: '/usr/bin/nvidia-cuda-mps-control'
[0m[33mWARNING: Skipping user bind, non existent bind point (file) in container: '/usr/bin/nvidia-cuda-mps-server'
[0mHOOMD-blue 2.3.5 CUDA (8.0) DOUBLE HPMC_MIXED TBB SSE SSE2 
Compiled: 10/08/18
Copyright 2009-2018 The Regents of the University of Michigan.
-----
You are using HOOMD-blue. Please cite the following:
* J A Anderson, C D Lorenz, and A Travesset. "General purpose molecular dynamics
  simulations fully implemented on graphics processing units", Journal of
  Computational Physics 227 (2008) 5342--5359
* J Glaser, T D Nguyen, J A Anderson, P Liu, F Spiga, J A Millan, D C Morse, and
  S C Glotzer. "Strong scaling of general-purpose molecular dynamics simulations
  on GPUs", Computer Physics Communications 192 (2015) 97--107
-----
notice(2): This system is not compute exclusive, using local rank to select GPUs
HOOMD-blue is running on the following GPU(s):
 [0]            Tesla K20m  13 SM_3.5 @ 0.706 GHz, 4743 MiB DRAM
Ramp_68.py:048  |  system = hoomd.init.read_gsd(ramp_file, frame = -1);
notice(2): Group "all" created containing 1004 particles
Ramp_68.py:052  |  rigid = hoomd.md.constrain.rigid();
notice(2): constrain.rigid(): Creating 1000 rigid bodies (adding 8000 particles)
Ramp_68.py:064  |  nl = hoomd.md.nlist.tree();
-----
You are using tree neighbor lists. Please cite the following:
* M P Howard, J A Anderson, A Nikoubashman, S C Glotzer, and A Z
  Panagiotopoulos. "Efficient neighbor list calculation for molecular simulation
  of colloidal systems using graphics processing units", Computer Physics
  Communications 203 (2016) 45--52
-----
Ramp_68.py:066  |  lj = hoomd.md.pair.lj(r_cut = 3.5, nlist = nl)
Ramp_68.py:067  |  lj.set_params(mode = 'shift')
Ramp_68.py:071  |  lj.pair_coeff.set('NP','NP', epsilon = 1.0, sigma = 5.0);
Ramp_68.py:072  |  lj.pair_coeff.set('M' ,'M' , epsilon = 1.0, sigma = 1.0);
Ramp_68.py:073  |  lj.pair_coeff.set('A' ,'A' , epsilon = 1.0, sigma = 1.0);
Ramp_68.py:074  |  lj.pair_coeff.set('M' ,'A' , epsilon = 1.0, sigma = 1.0);
Ramp_68.py:075  |  lj.pair_coeff.set('NP','M' , epsilon = 1.0, sigma = 3.0);
Ramp_68.py:076  |  lj.pair_coeff.set('NP','A' , epsilon = 1.0, sigma = 3.0);
Ramp_68.py:080  |  hoomd.md.integrate.mode_standard(dt = 0.005);
Ramp_68.py:084  |  nanoparticles = hoomd.group.type(name = 'Nano_Particles', type = 'NP');
notice(2): Group "Nano_Particles" created containing 4 particles
Ramp_68.py:085  |  mesogens = hoomd.group.rigid_center();
notice(2): Group "rigid_center" created containing 1000 particles
notice(2): Group "NP_Mes" created containing 1004 particles
Ramp_68.py:092  |  npt = hoomd.md.integrate.npt(group = groupNP_mes, kT = temp, tau = 4.0, tauP = 4.0, P = p_max);
Ramp_68.py:101  |  log = hoomd.analyze.log(filename = log_file,
                         quantities = ['num_particles',
                                     'ndof',
                                     'translational_ndof',
                                     'rotational_ndof',
                                     'potential_energy',
                                     'kinetic_energy',
                                     'translational_kinetic_energy',
                                     'rotational_kinetic_energy',
                                     'temperature',
                                     'pressure',
                                      'volume'],
                         period = 1e3,
                         overwrite = True);
Ramp_68.py:117  |                 group = hoomd.group.all(),
Ramp_68.py:115  |  gsd = hoomd.dump.gsd(gsd_file,
               period = 1e3,
               group = hoomd.group.all(),
               overwrite = True); 
Ramp_68.py:119  |  meso_gsd = hoomd.dump.gsd(meso_gsd_file,
               period = 1e3,
               group = groupNP_mes,
               overwrite = True); 
Ramp_68.py:130  |  hoomd.run(steps_ramp)
notice(2): -- Neighborlist exclusion statistics -- :
notice(2): Particles with 0 exclusions             : 9004
notice(2): Neighbors included by diameter          : no
notice(2): Neighbors excluded when in the same body: yes
** starting run **
Time 00:00:10 | Step 592113 / 640000 | TPS 211.277 | ETA 00:03:46
Time 00:00:20 | Step 594524 / 640000 | TPS 240.904 | ETA 00:03:08
Time 00:00:30 | Step 596821 / 640000 | TPS 229.607 | ETA 00:03:08
Time 00:00:40 | Step 599186 / 640000 | TPS 236.474 | ETA 00:02:52
Time 00:00:50 | Step 601554 / 640000 | TPS 236.606 | ETA 00:02:42
Time 00:01:00 | Step 603890 / 640000 | TPS 233.58 | ETA 00:02:34
Time 00:01:10 | Step 606211 / 640000 | TPS 232.041 | ETA 00:02:25
Time 00:01:20 | Step 608575 / 640000 | TPS 236.27 | ETA 00:02:13
Time 00:01:30 | Step 610915 / 640000 | TPS 233.983 | ETA 00:02:04
Time 00:01:40 | Step 613253 / 640000 | TPS 233.706 | ETA 00:01:54
Time 00:01:50 | Step 615589 / 640000 | TPS 233.482 | ETA 00:01:44
Time 00:02:00 | Step 617873 / 640000 | TPS 228.393 | ETA 00:01:36
Time 00:02:10 | Step 620201 / 640000 | TPS 232.75 | ETA 00:01:25
Time 00:02:20 | Step 622511 / 640000 | TPS 230.826 | ETA 00:01:15
Time 00:02:30 | Step 624813 / 640000 | TPS 230.112 | ETA 00:01:05
Time 00:02:40 | Step 627169 / 640000 | TPS 235.531 | ETA 00:00:54
Time 00:02:50 | Step 629511 / 640000 | TPS 234.192 | ETA 00:00:44
Time 00:03:00 | Step 631822 / 640000 | TPS 231.02 | ETA 00:00:35
Time 00:03:10 | Step 634164 / 640000 | TPS 234.019 | ETA 00:00:24
Time 00:03:20 | Step 636430 / 640000 | TPS 226.564 | ETA 00:00:15
Time 00:03:30 | Step 638750 / 640000 | TPS 231.92 | ETA 00:00:05
Time 00:03:35 | Step 640000 / 640000 | TPS 235.179 | ETA 00:00:00
Average TPS: 232.137
---------
-- Neighborlist stats:
22295 normal updates / 168 forced updates / 0 dangerous updates
n_neigh_min: 48 / n_neigh_max: 174 / n_neigh_avg: 138.411
shortest rebuild period: 1
** run complete **
[33mWARNING: Skipping user bind, non existent bind point (file) in container: '/usr/bin/nvidia-smi'
[0m[33mWARNING: Skipping user bind, non existent bind point (file) in container: '/usr/bin/nvidia-debugdump'
[0m[33mWARNING: Skipping user bind, non existent bind point (file) in container: '/usr/bin/nvidia-persistenced'
[0m[33mWARNING: Skipping user bind, non existent bind point (file) in container: '/usr/bin/nvidia-cuda-mps-control'
[0m[33mWARNING: Skipping user bind, non existent bind point (file) in container: '/usr/bin/nvidia-cuda-mps-server'
[0mHOOMD-blue 2.3.5 CUDA (8.0) DOUBLE HPMC_MIXED TBB SSE SSE2 
Compiled: 10/08/18
Copyright 2009-2018 The Regents of the University of Michigan.
-----
You are using HOOMD-blue. Please cite the following:
* J A Anderson, C D Lorenz, and A Travesset. "General purpose molecular dynamics
  simulations fully implemented on graphics processing units", Journal of
  Computational Physics 227 (2008) 5342--5359
* J Glaser, T D Nguyen, J A Anderson, P Liu, F Spiga, J A Millan, D C Morse, and
  S C Glotzer. "Strong scaling of general-purpose molecular dynamics simulations
  on GPUs", Computer Physics Communications 192 (2015) 97--107
-----
notice(2): This system is not compute exclusive, using local rank to select GPUs
HOOMD-blue is running on the following GPU(s):
 [0]            Tesla K20m  13 SM_3.5 @ 0.706 GHz, 4743 MiB DRAM
Ramp_70.py:048  |  system = hoomd.init.read_gsd(ramp_file, frame = -1);
notice(2): Group "all" created containing 1004 particles
Ramp_70.py:052  |  rigid = hoomd.md.constrain.rigid();
notice(2): constrain.rigid(): Creating 1000 rigid bodies (adding 8000 particles)
Ramp_70.py:064  |  nl = hoomd.md.nlist.tree();
-----
You are using tree neighbor lists. Please cite the following:
* M P Howard, J A Anderson, A Nikoubashman, S C Glotzer, and A Z
  Panagiotopoulos. "Efficient neighbor list calculation for molecular simulation
  of colloidal systems using graphics processing units", Computer Physics
  Communications 203 (2016) 45--52
-----
Ramp_70.py:066  |  lj = hoomd.md.pair.lj(r_cut = 3.5, nlist = nl)
Ramp_70.py:067  |  lj.set_params(mode = 'shift')
Ramp_70.py:071  |  lj.pair_coeff.set('NP','NP', epsilon = 1.0, sigma = 5.0);
Ramp_70.py:072  |  lj.pair_coeff.set('M' ,'M' , epsilon = 1.0, sigma = 1.0);
Ramp_70.py:073  |  lj.pair_coeff.set('A' ,'A' , epsilon = 1.0, sigma = 1.0);
Ramp_70.py:074  |  lj.pair_coeff.set('M' ,'A' , epsilon = 1.0, sigma = 1.0);
Ramp_70.py:075  |  lj.pair_coeff.set('NP','M' , epsilon = 1.0, sigma = 3.0);
Ramp_70.py:076  |  lj.pair_coeff.set('NP','A' , epsilon = 1.0, sigma = 3.0);
Ramp_70.py:080  |  hoomd.md.integrate.mode_standard(dt = 0.005);
Ramp_70.py:084  |  nanoparticles = hoomd.group.type(name = 'Nano_Particles', type = 'NP');
notice(2): Group "Nano_Particles" created containing 4 particles
Ramp_70.py:085  |  mesogens = hoomd.group.rigid_center();
notice(2): Group "rigid_center" created containing 1000 particles
notice(2): Group "NP_Mes" created containing 1004 particles
Ramp_70.py:092  |  npt = hoomd.md.integrate.npt(group = groupNP_mes, kT = temp, tau = 4.0, tauP = 4.0, P = p_max);
Ramp_70.py:101  |  log = hoomd.analyze.log(filename = log_file,
                         quantities = ['num_particles',
                                     'ndof',
                                     'translational_ndof',
                                     'rotational_ndof',
                                     'potential_energy',
                                     'kinetic_energy',
                                     'translational_kinetic_energy',
                                     'rotational_kinetic_energy',
                                     'temperature',
                                     'pressure',
                                      'volume'],
                         period = 1e3,
                         overwrite = True);
Ramp_70.py:117  |                 group = hoomd.group.all(),
Ramp_70.py:115  |  gsd = hoomd.dump.gsd(gsd_file,
               period = 1e3,
               group = hoomd.group.all(),
               overwrite = True); 
Ramp_70.py:119  |  meso_gsd = hoomd.dump.gsd(meso_gsd_file,
               period = 1e3,
               group = groupNP_mes,
               overwrite = True); 
Ramp_70.py:130  |  hoomd.run(steps_ramp)
notice(2): -- Neighborlist exclusion statistics -- :
notice(2): Particles with 0 exclusions             : 9004
notice(2): Neighbors included by diameter          : no
notice(2): Neighbors excluded when in the same body: yes
** starting run **
Time 00:00:10 | Step 641096 / 689000 | TPS 209.511 | ETA 00:03:48
Time 00:00:20 | Step 643414 / 689000 | TPS 231.763 | ETA 00:03:16
Time 00:00:30 | Step 645764 / 689000 | TPS 234.838 | ETA 00:03:04
Time 00:00:40 | Step 648095 / 689000 | TPS 233.087 | ETA 00:02:55
Time 00:00:50 | Step 650410 / 689000 | TPS 231.444 | ETA 00:02:46
Time 00:01:00 | Step 652741 / 689000 | TPS 233.097 | ETA 00:02:35
Time 00:01:10 | Step 655087 / 689000 | TPS 234.523 | ETA 00:02:24
Time 00:01:20 | Step 657407 / 689000 | TPS 231.87 | ETA 00:02:16
Time 00:01:30 | Step 659783 / 689000 | TPS 237.547 | ETA 00:02:02
Time 00:01:40 | Step 662123 / 689000 | TPS 233.809 | ETA 00:01:54
Time 00:01:50 | Step 664436 / 689000 | TPS 231.216 | ETA 00:01:46
Time 00:02:00 | Step 666778 / 689000 | TPS 234.189 | ETA 00:01:34
Time 00:02:10 | Step 669111 / 689000 | TPS 233.231 | ETA 00:01:25
Time 00:02:20 | Step 671469 / 689000 | TPS 235.599 | ETA 00:01:14
Time 00:02:30 | Step 673765 / 689000 | TPS 229.42 | ETA 00:01:06
Time 00:02:40 | Step 676113 / 689000 | TPS 234.631 | ETA 00:00:54
Time 00:02:50 | Step 678429 / 689000 | TPS 231.523 | ETA 00:00:45
Time 00:03:00 | Step 680754 / 689000 | TPS 232.469 | ETA 00:00:35
Time 00:03:10 | Step 683130 / 689000 | TPS 237.561 | ETA 00:00:24
Time 00:03:20 | Step 685465 / 689000 | TPS 233.362 | ETA 00:00:15
Time 00:03:30 | Step 687838 / 689000 | TPS 237.276 | ETA 00:00:04
Time 00:03:35 | Step 689000 / 689000 | TPS 234.743 | ETA 00:00:00
Average TPS: 232.527
---------
-- Neighborlist stats:
22897 normal updates / 168 forced updates / 0 dangerous updates
n_neigh_min: 49 / n_neigh_max: 168 / n_neigh_avg: 130.904
shortest rebuild period: 2
** run complete **
[33mWARNING: Skipping user bind, non existent bind point (file) in container: '/usr/bin/nvidia-smi'
[0m[33mWARNING: Skipping user bind, non existent bind point (file) in container: '/usr/bin/nvidia-debugdump'
[0m[33mWARNING: Skipping user bind, non existent bind point (file) in container: '/usr/bin/nvidia-persistenced'
[0m[33mWARNING: Skipping user bind, non existent bind point (file) in container: '/usr/bin/nvidia-cuda-mps-control'
[0m[33mWARNING: Skipping user bind, non existent bind point (file) in container: '/usr/bin/nvidia-cuda-mps-server'
[0mHOOMD-blue 2.3.5 CUDA (8.0) DOUBLE HPMC_MIXED TBB SSE SSE2 
Compiled: 10/08/18
Copyright 2009-2018 The Regents of the University of Michigan.
-----
You are using HOOMD-blue. Please cite the following:
* J A Anderson, C D Lorenz, and A Travesset. "General purpose molecular dynamics
  simulations fully implemented on graphics processing units", Journal of
  Computational Physics 227 (2008) 5342--5359
* J Glaser, T D Nguyen, J A Anderson, P Liu, F Spiga, J A Millan, D C Morse, and
  S C Glotzer. "Strong scaling of general-purpose molecular dynamics simulations
  on GPUs", Computer Physics Communications 192 (2015) 97--107
-----
notice(2): This system is not compute exclusive, using local rank to select GPUs
HOOMD-blue is running on the following GPU(s):
 [0]            Tesla K20m  13 SM_3.5 @ 0.706 GHz, 4743 MiB DRAM
Ramp_72.py:048  |  system = hoomd.init.read_gsd(ramp_file, frame = -1);
notice(2): Group "all" created containing 1004 particles
Ramp_72.py:052  |  rigid = hoomd.md.constrain.rigid();
notice(2): constrain.rigid(): Creating 1000 rigid bodies (adding 8000 particles)
Ramp_72.py:064  |  nl = hoomd.md.nlist.tree();
-----
You are using tree neighbor lists. Please cite the following:
* M P Howard, J A Anderson, A Nikoubashman, S C Glotzer, and A Z
  Panagiotopoulos. "Efficient neighbor list calculation for molecular simulation
  of colloidal systems using graphics processing units", Computer Physics
  Communications 203 (2016) 45--52
-----
Ramp_72.py:066  |  lj = hoomd.md.pair.lj(r_cut = 3.5, nlist = nl)
Ramp_72.py:067  |  lj.set_params(mode = 'shift')
Ramp_72.py:071  |  lj.pair_coeff.set('NP','NP', epsilon = 1.0, sigma = 5.0);
Ramp_72.py:072  |  lj.pair_coeff.set('M' ,'M' , epsilon = 1.0, sigma = 1.0);
Ramp_72.py:073  |  lj.pair_coeff.set('A' ,'A' , epsilon = 1.0, sigma = 1.0);
Ramp_72.py:074  |  lj.pair_coeff.set('M' ,'A' , epsilon = 1.0, sigma = 1.0);
Ramp_72.py:075  |  lj.pair_coeff.set('NP','M' , epsilon = 1.0, sigma = 3.0);
Ramp_72.py:076  |  lj.pair_coeff.set('NP','A' , epsilon = 1.0, sigma = 3.0);
Ramp_72.py:080  |  hoomd.md.integrate.mode_standard(dt = 0.005);
Ramp_72.py:084  |  nanoparticles = hoomd.group.type(name = 'Nano_Particles', type = 'NP');
notice(2): Group "Nano_Particles" created containing 4 particles
Ramp_72.py:085  |  mesogens = hoomd.group.rigid_center();
notice(2): Group "rigid_center" created containing 1000 particles
notice(2): Group "NP_Mes" created containing 1004 particles
Ramp_72.py:092  |  npt = hoomd.md.integrate.npt(group = groupNP_mes, kT = temp, tau = 5.0, tauP = 5.0, P = p_max);
Ramp_72.py:101  |  log = hoomd.analyze.log(filename = log_file,
                         quantities = ['num_particles',
                                     'ndof',
                                     'translational_ndof',
                                     'rotational_ndof',
                                     'potential_energy',
                                     'kinetic_energy',
                                     'translational_kinetic_energy',
                                     'rotational_kinetic_energy',
                                     'temperature',
                                     'pressure',
                                      'volume'],
                         period = 1e3,
                         overwrite = True);
Ramp_72.py:117  |                 group = hoomd.group.all(),
Ramp_72.py:115  |  gsd = hoomd.dump.gsd(gsd_file,
               period = 1e3,
               group = hoomd.group.all(),
               overwrite = True); 
Ramp_72.py:119  |  meso_gsd = hoomd.dump.gsd(meso_gsd_file,
               period = 1e3,
               group = groupNP_mes,
               overwrite = True); 
Ramp_72.py:130  |  hoomd.run(steps_ramp)
notice(2): -- Neighborlist exclusion statistics -- :
notice(2): Particles with 0 exclusions             : 9004
notice(2): Neighbors included by diameter          : no
notice(2): Neighbors excluded when in the same body: yes
** starting run **
Time 00:00:10 | Step 690134 / 738000 | TPS 213.39 | ETA 00:03:44
Time 00:00:20 | Step 692454 / 738000 | TPS 231.99 | ETA 00:03:16
Time 00:00:30 | Step 694843 / 738000 | TPS 238.791 | ETA 00:03:00
Time 00:00:40 | Step 697174 / 738000 | TPS 233.015 | ETA 00:02:55
Time 00:00:50 | Step 699548 / 738000 | TPS 237.336 | ETA 00:02:42
Time 00:01:00 | Step 701910 / 738000 | TPS 236.157 | ETA 00:02:32
Time 00:01:10 | Step 704244 / 738000 | TPS 233.237 | ETA 00:02:24
Time 00:01:20 | Step 706613 / 738000 | TPS 236.841 | ETA 00:02:12
Time 00:01:30 | Step 708992 / 738000 | TPS 237.746 | ETA 00:02:02
Time 00:01:40 | Step 711283 / 738000 | TPS 229.042 | ETA 00:01:56
Time 00:01:50 | Step 713658 / 738000 | TPS 237.327 | ETA 00:01:42
Time 00:02:00 | Step 716063 / 738000 | TPS 240.45 | ETA 00:01:31
Time 00:02:10 | Step 718454 / 738000 | TPS 238.942 | ETA 00:01:21
Time 00:02:20 | Step 720833 / 738000 | TPS 237.777 | ETA 00:01:12
Time 00:02:30 | Step 723247 / 738000 | TPS 241.274 | ETA 00:01:01
Time 00:02:40 | Step 725633 / 738000 | TPS 238.468 | ETA 00:00:51
Time 00:02:50 | Step 728050 / 738000 | TPS 241.617 | ETA 00:00:41
Time 00:03:00 | Step 730414 / 738000 | TPS 236.389 | ETA 00:00:32
Time 00:03:10 | Step 732797 / 738000 | TPS 238.222 | ETA 00:00:21
Time 00:03:20 | Step 735164 / 738000 | TPS 236.543 | ETA 00:00:11
Time 00:03:30 | Step 737499 / 738000 | TPS 233.486 | ETA 00:00:02
Time 00:03:32 | Step 738000 / 738000 | TPS 240.621 | ETA 00:00:00
Average TPS: 235.671
---------
-- Neighborlist stats:
23470 normal updates / 167 forced updates / 0 dangerous updates
n_neigh_min: 35 / n_neigh_max: 167 / n_neigh_avg: 121.747
shortest rebuild period: 1
** run complete **
[33mWARNING: Skipping user bind, non existent bind point (file) in container: '/usr/bin/nvidia-smi'
[0m[33mWARNING: Skipping user bind, non existent bind point (file) in container: '/usr/bin/nvidia-debugdump'
[0m[33mWARNING: Skipping user bind, non existent bind point (file) in container: '/usr/bin/nvidia-persistenced'
[0m[33mWARNING: Skipping user bind, non existent bind point (file) in container: '/usr/bin/nvidia-cuda-mps-control'
[0m[33mWARNING: Skipping user bind, non existent bind point (file) in container: '/usr/bin/nvidia-cuda-mps-server'
[0mHOOMD-blue 2.3.5 CUDA (8.0) DOUBLE HPMC_MIXED TBB SSE SSE2 
Compiled: 10/08/18
Copyright 2009-2018 The Regents of the University of Michigan.
-----
You are using HOOMD-blue. Please cite the following:
* J A Anderson, C D Lorenz, and A Travesset. "General purpose molecular dynamics
  simulations fully implemented on graphics processing units", Journal of
  Computational Physics 227 (2008) 5342--5359
* J Glaser, T D Nguyen, J A Anderson, P Liu, F Spiga, J A Millan, D C Morse, and
  S C Glotzer. "Strong scaling of general-purpose molecular dynamics simulations
  on GPUs", Computer Physics Communications 192 (2015) 97--107
-----
notice(2): This system is not compute exclusive, using local rank to select GPUs
HOOMD-blue is running on the following GPU(s):
 [0]            Tesla K20m  13 SM_3.5 @ 0.706 GHz, 4743 MiB DRAM
Ramp_74.py:048  |  system = hoomd.init.read_gsd(ramp_file, frame = -1);
notice(2): Group "all" created containing 1004 particles
Ramp_74.py:052  |  rigid = hoomd.md.constrain.rigid();
notice(2): constrain.rigid(): Creating 1000 rigid bodies (adding 8000 particles)
Ramp_74.py:064  |  nl = hoomd.md.nlist.tree();
-----
You are using tree neighbor lists. Please cite the following:
* M P Howard, J A Anderson, A Nikoubashman, S C Glotzer, and A Z
  Panagiotopoulos. "Efficient neighbor list calculation for molecular simulation
  of colloidal systems using graphics processing units", Computer Physics
  Communications 203 (2016) 45--52
-----
Ramp_74.py:066  |  lj = hoomd.md.pair.lj(r_cut = 3.5, nlist = nl)
Ramp_74.py:067  |  lj.set_params(mode = 'shift')
Ramp_74.py:071  |  lj.pair_coeff.set('NP','NP', epsilon = 1.0, sigma = 5.0);
Ramp_74.py:072  |  lj.pair_coeff.set('M' ,'M' , epsilon = 1.0, sigma = 1.0);
Ramp_74.py:073  |  lj.pair_coeff.set('A' ,'A' , epsilon = 1.0, sigma = 1.0);
Ramp_74.py:074  |  lj.pair_coeff.set('M' ,'A' , epsilon = 1.0, sigma = 1.0);
Ramp_74.py:075  |  lj.pair_coeff.set('NP','M' , epsilon = 1.0, sigma = 3.0);
Ramp_74.py:076  |  lj.pair_coeff.set('NP','A' , epsilon = 1.0, sigma = 3.0);
Ramp_74.py:080  |  hoomd.md.integrate.mode_standard(dt = 0.005);
Ramp_74.py:084  |  nanoparticles = hoomd.group.type(name = 'Nano_Particles', type = 'NP');
notice(2): Group "Nano_Particles" created containing 4 particles
Ramp_74.py:085  |  mesogens = hoomd.group.rigid_center();
notice(2): Group "rigid_center" created containing 1000 particles
notice(2): Group "NP_Mes" created containing 1004 particles
Ramp_74.py:092  |  npt = hoomd.md.integrate.npt(group = groupNP_mes, kT = temp, tau = 5.0, tauP = 5.0, P = p_max);
Ramp_74.py:101  |  log = hoomd.analyze.log(filename = log_file,
                         quantities = ['num_particles',
                                     'ndof',
                                     'translational_ndof',
                                     'rotational_ndof',
                                     'potential_energy',
                                     'kinetic_energy',
                                     'translational_kinetic_energy',
                                     'rotational_kinetic_energy',
                                     'temperature',
                                     'pressure',
                                      'volume'],
                         period = 1e3,
                         overwrite = True);
Ramp_74.py:117  |                 group = hoomd.group.all(),
Ramp_74.py:115  |  gsd = hoomd.dump.gsd(gsd_file,
               period = 1e3,
               group = hoomd.group.all(),
               overwrite = True); 
Ramp_74.py:119  |  meso_gsd = hoomd.dump.gsd(meso_gsd_file,
               period = 1e3,
               group = groupNP_mes,
               overwrite = True); 
Ramp_74.py:130  |  hoomd.run(steps_ramp)
notice(2): -- Neighborlist exclusion statistics -- :
notice(2): Particles with 0 exclusions             : 9004
notice(2): Neighbors included by diameter          : no
notice(2): Neighbors excluded when in the same body: yes
** starting run **
Time 00:00:10 | Step 739086 / 787000 | TPS 208.436 | ETA 00:03:49
Time 00:00:20 | Step 741365 / 787000 | TPS 227.874 | ETA 00:03:20
Time 00:00:30 | Step 743709 / 787000 | TPS 234.355 | ETA 00:03:04
Time 00:00:40 | Step 746058 / 787000 | TPS 234.812 | ETA 00:02:54
Time 00:00:50 | Step 748432 / 787000 | TPS 237.29 | ETA 00:02:42
Time 00:01:00 | Step 750797 / 787000 | TPS 236.474 | ETA 00:02:33
Time 00:01:10 | Step 753154 / 787000 | TPS 235.686 | ETA 00:02:23
Time 00:01:20 | Step 755534 / 787000 | TPS 237.948 | ETA 00:02:12
Time 00:01:30 | Step 757933 / 787000 | TPS 239.857 | ETA 00:02:01
Time 00:01:40 | Step 760292 / 787000 | TPS 235.844 | ETA 00:01:53
Time 00:01:50 | Step 762679 / 787000 | TPS 238.655 | ETA 00:01:41
Time 00:02:00 | Step 765082 / 787000 | TPS 240.115 | ETA 00:01:31
Time 00:02:10 | Step 767488 / 787000 | TPS 240.508 | ETA 00:01:21
Time 00:02:20 | Step 769891 / 787000 | TPS 240.294 | ETA 00:01:11
Time 00:02:30 | Step 772337 / 787000 | TPS 244.486 | ETA 00:00:59
Time 00:02:40 | Step 774776 / 787000 | TPS 243.88 | ETA 00:00:50
Time 00:02:50 | Step 777164 / 787000 | TPS 238.798 | ETA 00:00:41
Time 00:03:00 | Step 779610 / 787000 | TPS 244.494 | ETA 00:00:30
Time 00:03:10 | Step 783601 / 787000 | TPS 391.7 | ETA 00:00:08
Time 00:03:15 | Step 787000 / 787000 | TPS 663.384 | ETA 00:00:00
Average TPS: 255.933
---------
-- Neighborlist stats:
21206 normal updates / 168 forced updates / 0 dangerous updates
n_neigh_min: 0 / n_neigh_max: 0 / n_neigh_avg: 0
shortest rebuild period: 1
** run complete **
[33mWARNING: Skipping user bind, non existent bind point (file) in container: '/usr/bin/nvidia-smi'
[0m[33mWARNING: Skipping user bind, non existent bind point (file) in container: '/usr/bin/nvidia-debugdump'
[0m[33mWARNING: Skipping user bind, non existent bind point (file) in container: '/usr/bin/nvidia-persistenced'
[0m[33mWARNING: Skipping user bind, non existent bind point (file) in container: '/usr/bin/nvidia-cuda-mps-control'
[0m[33mWARNING: Skipping user bind, non existent bind point (file) in container: '/usr/bin/nvidia-cuda-mps-server'
[0mHOOMD-blue 2.3.5 CUDA (8.0) DOUBLE HPMC_MIXED TBB SSE SSE2 
Compiled: 10/08/18
Copyright 2009-2018 The Regents of the University of Michigan.
-----
You are using HOOMD-blue. Please cite the following:
* J A Anderson, C D Lorenz, and A Travesset. "General purpose molecular dynamics
  simulations fully implemented on graphics processing units", Journal of
  Computational Physics 227 (2008) 5342--5359
* J Glaser, T D Nguyen, J A Anderson, P Liu, F Spiga, J A Millan, D C Morse, and
  S C Glotzer. "Strong scaling of general-purpose molecular dynamics simulations
  on GPUs", Computer Physics Communications 192 (2015) 97--107
-----
notice(2): This system is not compute exclusive, using local rank to select GPUs
HOOMD-blue is running on the following GPU(s):
 [0]            Tesla K20m  13 SM_3.5 @ 0.706 GHz, 4743 MiB DRAM
Ramp_76.py:048  |  system = hoomd.init.read_gsd(ramp_file, frame = -1);
notice(2): Group "all" created containing 1004 particles
Ramp_76.py:052  |  rigid = hoomd.md.constrain.rigid();
notice(2): constrain.rigid(): Creating 1000 rigid bodies (adding 8000 particles)
Ramp_76.py:064  |  nl = hoomd.md.nlist.tree();
-----
You are using tree neighbor lists. Please cite the following:
* M P Howard, J A Anderson, A Nikoubashman, S C Glotzer, and A Z
  Panagiotopoulos. "Efficient neighbor list calculation for molecular simulation
  of colloidal systems using graphics processing units", Computer Physics
  Communications 203 (2016) 45--52
-----
Ramp_76.py:066  |  lj = hoomd.md.pair.lj(r_cut = 3.5, nlist = nl)
Ramp_76.py:067  |  lj.set_params(mode = 'shift')
Ramp_76.py:071  |  lj.pair_coeff.set('NP','NP', epsilon = 1.0, sigma = 5.0);
Ramp_76.py:072  |  lj.pair_coeff.set('M' ,'M' , epsilon = 1.0, sigma = 1.0);
Ramp_76.py:073  |  lj.pair_coeff.set('A' ,'A' , epsilon = 1.0, sigma = 1.0);
Ramp_76.py:074  |  lj.pair_coeff.set('M' ,'A' , epsilon = 1.0, sigma = 1.0);
Ramp_76.py:075  |  lj.pair_coeff.set('NP','M' , epsilon = 1.0, sigma = 3.0);
Ramp_76.py:076  |  lj.pair_coeff.set('NP','A' , epsilon = 1.0, sigma = 3.0);
Ramp_76.py:080  |  hoomd.md.integrate.mode_standard(dt = 0.005);
Ramp_76.py:084  |  nanoparticles = hoomd.group.type(name = 'Nano_Particles', type = 'NP');
notice(2): Group "Nano_Particles" created containing 4 particles
Ramp_76.py:085  |  mesogens = hoomd.group.rigid_center();
notice(2): Group "rigid_center" created containing 1000 particles
notice(2): Group "NP_Mes" created containing 1004 particles
Ramp_76.py:092  |  npt = hoomd.md.integrate.npt(group = groupNP_mes, kT = temp, tau = 5.0, tauP = 5.0, P = p_max);
Ramp_76.py:101  |  log = hoomd.analyze.log(filename = log_file,
                         quantities = ['num_particles',
                                     'ndof',
                                     'translational_ndof',
                                     'rotational_ndof',
                                     'potential_energy',
                                     'kinetic_energy',
                                     'translational_kinetic_energy',
                                     'rotational_kinetic_energy',
                                     'temperature',
                                     'pressure',
                                      'volume'],
                         period = 1e3,
                         overwrite = True);
Ramp_76.py:117  |                 group = hoomd.group.all(),
Ramp_76.py:115  |  gsd = hoomd.dump.gsd(gsd_file,
               period = 1e3,
               group = hoomd.group.all(),
               overwrite = True); 
Ramp_76.py:119  |  meso_gsd = hoomd.dump.gsd(meso_gsd_file,
               period = 1e3,
               group = groupNP_mes,
               overwrite = True); 
Ramp_76.py:130  |  hoomd.run(steps_ramp)
notice(2): -- Neighborlist exclusion statistics -- :
notice(2): Particles with 0 exclusions             : 9004
notice(2): Neighbors included by diameter          : no
notice(2): Neighbors excluded when in the same body: yes
** starting run **
Time 00:00:10 | Step 791100 / 836000 | TPS 509.991 | ETA 00:01:28
Time 00:00:20 | Step 797701 / 836000 | TPS 653.896 | ETA 00:00:58
Time 00:00:30 | Step 803401 / 836000 | TPS 566.203 | ETA 00:00:57
Time 00:00:40 | Step 808501 / 836000 | TPS 509.911 | ETA 00:00:53
Time 00:00:50 | Step 812401 / 836000 | TPS 381.303 | ETA 00:01:01
Time 00:01:00 | Step 816301 / 836000 | TPS 380.932 | ETA 00:00:51
Time 00:01:10 | Step 822301 / 836000 | TPS 590.418 | ETA 00:00:23
Time 00:01:21 | Step 828601 / 836000 | TPS 617.085 | ETA 00:00:11
Time 00:01:31 | Step 834966 / 836000 | TPS 636.486 | ETA 00:00:01
Time 00:01:32 | Step 836000 / 836000 | TPS 753.796 | ETA 00:00:00
Average TPS: 541.28
---------
-- Neighborlist stats:
0 normal updates / 168 forced updates / 0 dangerous updates
n_neigh_min: 0 / n_neigh_max: 0 / n_neigh_avg: 0
shortest rebuild period: 100
** run complete **
[33mWARNING: Skipping user bind, non existent bind point (file) in container: '/usr/bin/nvidia-smi'
[0m[33mWARNING: Skipping user bind, non existent bind point (file) in container: '/usr/bin/nvidia-debugdump'
[0m[33mWARNING: Skipping user bind, non existent bind point (file) in container: '/usr/bin/nvidia-persistenced'
[0m[33mWARNING: Skipping user bind, non existent bind point (file) in container: '/usr/bin/nvidia-cuda-mps-control'
[0m[33mWARNING: Skipping user bind, non existent bind point (file) in container: '/usr/bin/nvidia-cuda-mps-server'
[0mHOOMD-blue 2.3.5 CUDA (8.0) DOUBLE HPMC_MIXED TBB SSE SSE2 
Compiled: 10/08/18
Copyright 2009-2018 The Regents of the University of Michigan.
-----
You are using HOOMD-blue. Please cite the following:
* J A Anderson, C D Lorenz, and A Travesset. "General purpose molecular dynamics
  simulations fully implemented on graphics processing units", Journal of
  Computational Physics 227 (2008) 5342--5359
* J Glaser, T D Nguyen, J A Anderson, P Liu, F Spiga, J A Millan, D C Morse, and
  S C Glotzer. "Strong scaling of general-purpose molecular dynamics simulations
  on GPUs", Computer Physics Communications 192 (2015) 97--107
-----
notice(2): This system is not compute exclusive, using local rank to select GPUs
HOOMD-blue is running on the following GPU(s):
 [0]            Tesla K20m  13 SM_3.5 @ 0.706 GHz, 4743 MiB DRAM
Ramp_78.py:048  |  system = hoomd.init.read_gsd(ramp_file, frame = -1);
notice(2): Group "all" created containing 1004 particles
Ramp_78.py:052  |  rigid = hoomd.md.constrain.rigid();
notice(2): constrain.rigid(): Creating 1000 rigid bodies (adding 8000 particles)
Ramp_78.py:064  |  nl = hoomd.md.nlist.tree();
-----
You are using tree neighbor lists. Please cite the following:
* M P Howard, J A Anderson, A Nikoubashman, S C Glotzer, and A Z
  Panagiotopoulos. "Efficient neighbor list calculation for molecular simulation
  of colloidal systems using graphics processing units", Computer Physics
  Communications 203 (2016) 45--52
-----
Ramp_78.py:066  |  lj = hoomd.md.pair.lj(r_cut = 3.5, nlist = nl)
Ramp_78.py:067  |  lj.set_params(mode = 'shift')
Ramp_78.py:071  |  lj.pair_coeff.set('NP','NP', epsilon = 1.0, sigma = 5.0);
Ramp_78.py:072  |  lj.pair_coeff.set('M' ,'M' , epsilon = 1.0, sigma = 1.0);
Ramp_78.py:073  |  lj.pair_coeff.set('A' ,'A' , epsilon = 1.0, sigma = 1.0);
Ramp_78.py:074  |  lj.pair_coeff.set('M' ,'A' , epsilon = 1.0, sigma = 1.0);
Ramp_78.py:075  |  lj.pair_coeff.set('NP','M' , epsilon = 1.0, sigma = 3.0);
Ramp_78.py:076  |  lj.pair_coeff.set('NP','A' , epsilon = 1.0, sigma = 3.0);
Ramp_78.py:080  |  hoomd.md.integrate.mode_standard(dt = 0.005);
Ramp_78.py:084  |  nanoparticles = hoomd.group.type(name = 'Nano_Particles', type = 'NP');
notice(2): Group "Nano_Particles" created containing 4 particles
Ramp_78.py:085  |  mesogens = hoomd.group.rigid_center();
notice(2): Group "rigid_center" created containing 1000 particles
notice(2): Group "NP_Mes" created containing 1004 particles
Ramp_78.py:092  |  npt = hoomd.md.integrate.npt(group = groupNP_mes, kT = temp, tau = 6.0, tauP = 6.0, P = p_max);
Ramp_78.py:101  |  log = hoomd.analyze.log(filename = log_file,
                         quantities = ['num_particles',
                                     'ndof',
                                     'translational_ndof',
                                     'rotational_ndof',
                                     'potential_energy',
                                     'kinetic_energy',
                                     'translational_kinetic_energy',
                                     'rotational_kinetic_energy',
                                     'temperature',
                                     'pressure',
                                      'volume'],
                         period = 1e3,
                         overwrite = True);
Ramp_78.py:117  |                 group = hoomd.group.all(),
Ramp_78.py:115  |  gsd = hoomd.dump.gsd(gsd_file,
               period = 1e3,
               group = hoomd.group.all(),
               overwrite = True); 
Ramp_78.py:119  |  meso_gsd = hoomd.dump.gsd(meso_gsd_file,
               period = 1e3,
               group = groupNP_mes,
               overwrite = True); 
Ramp_78.py:130  |  hoomd.run(steps_ramp)
notice(2): -- Neighborlist exclusion statistics -- :
notice(2): Particles with 0 exclusions             : 9004
notice(2): Neighbors included by diameter          : no
notice(2): Neighbors excluded when in the same body: yes
** starting run **
Time 00:00:10 | Step 840095 / 885000 | TPS 509.484 | ETA 00:01:28
Time 00:00:20 | Step 846901 / 885000 | TPS 667.915 | ETA 00:00:57
Time 00:00:30 | Step 852601 / 885000 | TPS 565.627 | ETA 00:00:57
Time 00:00:40 | Step 857701 / 885000 | TPS 509.53 | ETA 00:00:53
Time 00:00:50 | Step 861601 / 885000 | TPS 381.24 | ETA 00:01:01
Time 00:01:00 | Step 865501 / 885000 | TPS 380.825 | ETA 00:00:51
Time 00:01:11 | Step 871501 / 885000 | TPS 589.764 | ETA 00:00:22
Time 00:01:21 | Step 877801 / 885000 | TPS 616.635 | ETA 00:00:11
Time 00:01:31 | Step 884123 / 885000 | TPS 632.177 | ETA 00:00:01
Time 00:01:32 | Step 885000 / 885000 | TPS 884.699 | ETA 00:00:00
Average TPS: 542.714
---------
-- Neighborlist stats:
0 normal updates / 167 forced updates / 0 dangerous updates
n_neigh_min: 0 / n_neigh_max: 0 / n_neigh_avg: 0
shortest rebuild period: 100
** run complete **
[33mWARNING: Skipping user bind, non existent bind point (file) in container: '/usr/bin/nvidia-smi'
[0m[33mWARNING: Skipping user bind, non existent bind point (file) in container: '/usr/bin/nvidia-debugdump'
[0m[33mWARNING: Skipping user bind, non existent bind point (file) in container: '/usr/bin/nvidia-persistenced'
[0m[33mWARNING: Skipping user bind, non existent bind point (file) in container: '/usr/bin/nvidia-cuda-mps-control'
[0m[33mWARNING: Skipping user bind, non existent bind point (file) in container: '/usr/bin/nvidia-cuda-mps-server'
[0mHOOMD-blue 2.3.5 CUDA (8.0) DOUBLE HPMC_MIXED TBB SSE SSE2 
Compiled: 10/08/18
Copyright 2009-2018 The Regents of the University of Michigan.
-----
You are using HOOMD-blue. Please cite the following:
* J A Anderson, C D Lorenz, and A Travesset. "General purpose molecular dynamics
  simulations fully implemented on graphics processing units", Journal of
  Computational Physics 227 (2008) 5342--5359
* J Glaser, T D Nguyen, J A Anderson, P Liu, F Spiga, J A Millan, D C Morse, and
  S C Glotzer. "Strong scaling of general-purpose molecular dynamics simulations
  on GPUs", Computer Physics Communications 192 (2015) 97--107
-----
notice(2): This system is not compute exclusive, using local rank to select GPUs
HOOMD-blue is running on the following GPU(s):
 [0]            Tesla K20m  13 SM_3.5 @ 0.706 GHz, 4743 MiB DRAM
Ramp_80.py:048  |  system = hoomd.init.read_gsd(ramp_file, frame = -1);
notice(2): Group "all" created containing 1004 particles
Ramp_80.py:052  |  rigid = hoomd.md.constrain.rigid();
notice(2): constrain.rigid(): Creating 1000 rigid bodies (adding 8000 particles)
Ramp_80.py:064  |  nl = hoomd.md.nlist.tree();
-----
You are using tree neighbor lists. Please cite the following:
* M P Howard, J A Anderson, A Nikoubashman, S C Glotzer, and A Z
  Panagiotopoulos. "Efficient neighbor list calculation for molecular simulation
  of colloidal systems using graphics processing units", Computer Physics
  Communications 203 (2016) 45--52
-----
Ramp_80.py:066  |  lj = hoomd.md.pair.lj(r_cut = 3.5, nlist = nl)
Ramp_80.py:067  |  lj.set_params(mode = 'shift')
Ramp_80.py:071  |  lj.pair_coeff.set('NP','NP', epsilon = 1.0, sigma = 5.0);
Ramp_80.py:072  |  lj.pair_coeff.set('M' ,'M' , epsilon = 1.0, sigma = 1.0);
Ramp_80.py:073  |  lj.pair_coeff.set('A' ,'A' , epsilon = 1.0, sigma = 1.0);
Ramp_80.py:074  |  lj.pair_coeff.set('M' ,'A' , epsilon = 1.0, sigma = 1.0);
Ramp_80.py:075  |  lj.pair_coeff.set('NP','M' , epsilon = 1.0, sigma = 3.0);
Ramp_80.py:076  |  lj.pair_coeff.set('NP','A' , epsilon = 1.0, sigma = 3.0);
Ramp_80.py:080  |  hoomd.md.integrate.mode_standard(dt = 0.005);
Ramp_80.py:084  |  nanoparticles = hoomd.group.type(name = 'Nano_Particles', type = 'NP');
notice(2): Group "Nano_Particles" created containing 4 particles
Ramp_80.py:085  |  mesogens = hoomd.group.rigid_center();
notice(2): Group "rigid_center" created containing 1000 particles
notice(2): Group "NP_Mes" created containing 1004 particles
Ramp_80.py:092  |  npt = hoomd.md.integrate.npt(group = groupNP_mes, kT = temp, tau = 6.0, tauP = 6.0, P = p_max);
Ramp_80.py:101  |  log = hoomd.analyze.log(filename = log_file,
                         quantities = ['num_particles',
                                     'ndof',
                                     'translational_ndof',
                                     'rotational_ndof',
                                     'potential_energy',
                                     'kinetic_energy',
                                     'translational_kinetic_energy',
                                     'rotational_kinetic_energy',
                                     'temperature',
                                     'pressure',
                                      'volume'],
                         period = 1e3,
                         overwrite = True);
Ramp_80.py:117  |                 group = hoomd.group.all(),
Ramp_80.py:115  |  gsd = hoomd.dump.gsd(gsd_file,
               period = 1e3,
               group = hoomd.group.all(),
               overwrite = True); 
Ramp_80.py:119  |  meso_gsd = hoomd.dump.gsd(meso_gsd_file,
               period = 1e3,
               group = groupNP_mes,
               overwrite = True); 
Ramp_80.py:130  |  hoomd.run(steps_ramp)
notice(2): -- Neighborlist exclusion statistics -- :
notice(2): Particles with 0 exclusions             : 9004
notice(2): Neighbors included by diameter          : no
notice(2): Neighbors excluded when in the same body: yes
** starting run **
Time 00:00:10 | Step 889201 / 934000 | TPS 505.074 | ETA 00:01:28
Time 00:00:20 | Step 896101 / 934000 | TPS 675.282 | ETA 00:00:56
Time 00:00:30 | Step 901801 / 934000 | TPS 566.776 | ETA 00:00:56
Time 00:00:41 | Step 906901 / 934000 | TPS 494.771 | ETA 00:00:54
Time 00:00:51 | Step 910801 / 934000 | TPS 381.373 | ETA 00:01:00
Time 00:01:01 | Step 914701 / 934000 | TPS 381.742 | ETA 00:00:50
Time 00:01:11 | Step 921001 / 934000 | TPS 609.182 | ETA 00:00:21
Time 00:01:22 | Step 927301 / 934000 | TPS 618.048 | ETA 00:00:10
Time 00:01:32 | Step 933901 / 934000 | TPS 640.865 | ETA 00:00:00
Time 00:01:32 | Step 934000 / 934000 | TPS 2509.63 | ETA 00:00:00
Average TPS: 542.324
---------
-- Neighborlist stats:
0 normal updates / 168 forced updates / 0 dangerous updates
n_neigh_min: 0 / n_neigh_max: 0 / n_neigh_avg: 0
shortest rebuild period: 100
** run complete **
