[33mWARNING: Skipping user bind, non existent bind point (file) in container: '/usr/bin/nvidia-smi'
[0m[33mWARNING: Skipping user bind, non existent bind point (file) in container: '/usr/bin/nvidia-debugdump'
[0m[33mWARNING: Skipping user bind, non existent bind point (file) in container: '/usr/bin/nvidia-persistenced'
[0m[33mWARNING: Skipping user bind, non existent bind point (file) in container: '/usr/bin/nvidia-cuda-mps-control'
[0m[33mWARNING: Skipping user bind, non existent bind point (file) in container: '/usr/bin/nvidia-cuda-mps-server'
[0mHOOMD-blue 2.3.5 CUDA (8.0) DOUBLE HPMC_MIXED TBB SSE SSE2 
Compiled: 10/08/18
Copyright 2009-2018 The Regents of the University of Michigan.
-----
You are using HOOMD-blue. Please cite the following:
* J A Anderson, C D Lorenz, and A Travesset. "General purpose molecular dynamics
  simulations fully implemented on graphics processing units", Journal of
  Computational Physics 227 (2008) 5342--5359
* J Glaser, T D Nguyen, J A Anderson, P Liu, F Spiga, J A Millan, D C Morse, and
  S C Glotzer. "Strong scaling of general-purpose molecular dynamics simulations
  on GPUs", Computer Physics Communications 192 (2015) 97--107
-----
notice(2): This system is not compute exclusive, using local rank to select GPUs
HOOMD-blue is running on the following GPU(s):
 [0]            Tesla K20m  13 SM_3.5 @ 0.706 GHz, 4743 MiB DRAM
Ramp_80.py:048  |  system = hoomd.init.read_gsd(ramp_file, frame = -1);
notice(2): Group "all" created containing 1004 particles
Ramp_80.py:052  |  rigid = hoomd.md.constrain.rigid();
notice(2): constrain.rigid(): Creating 1000 rigid bodies (adding 8000 particles)
Ramp_80.py:064  |  nl = hoomd.md.nlist.tree();
-----
You are using tree neighbor lists. Please cite the following:
* M P Howard, J A Anderson, A Nikoubashman, S C Glotzer, and A Z
  Panagiotopoulos. "Efficient neighbor list calculation for molecular simulation
  of colloidal systems using graphics processing units", Computer Physics
  Communications 203 (2016) 45--52
-----
Ramp_80.py:066  |  lj = hoomd.md.pair.lj(r_cut = 3.5, nlist = nl)
Ramp_80.py:067  |  lj.set_params(mode = 'shift')
Ramp_80.py:071  |  lj.pair_coeff.set('NP','NP', epsilon = 1.0, sigma = 5.0);
Ramp_80.py:072  |  lj.pair_coeff.set('M' ,'M' , epsilon = 1.0, sigma = 1.0);
Ramp_80.py:073  |  lj.pair_coeff.set('A' ,'A' , epsilon = 1.0, sigma = 1.0);
Ramp_80.py:074  |  lj.pair_coeff.set('M' ,'A' , epsilon = 1.0, sigma = 1.0);
Ramp_80.py:075  |  lj.pair_coeff.set('NP','M' , epsilon = 1.0, sigma = 3.0);
Ramp_80.py:076  |  lj.pair_coeff.set('NP','A' , epsilon = 1.0, sigma = 3.0);
Ramp_80.py:080  |  hoomd.md.integrate.mode_standard(dt = 0.005);
Ramp_80.py:084  |  nanoparticles = hoomd.group.type(name = 'Nano_Particles', type = 'NP');
notice(2): Group "Nano_Particles" created containing 4 particles
Ramp_80.py:085  |  mesogens = hoomd.group.rigid_center();
notice(2): Group "rigid_center" created containing 1000 particles
notice(2): Group "NP_Mes" created containing 1004 particles
Ramp_80.py:092  |  npt = hoomd.md.integrate.npt(group = groupNP_mes, kT = temp, tau = 8.0, tauP = 8.0, P = p_max);
Ramp_80.py:101  |  log = hoomd.analyze.log(filename = log_file,
                         quantities = ['num_particles',
                                     'ndof',
                                     'translational_ndof',
                                     'rotational_ndof',
                                     'potential_energy',
                                     'kinetic_energy',
                                     'translational_kinetic_energy',
                                     'rotational_kinetic_energy',
                                     'temperature',
                                     'pressure',
                                      'volume'],
                         period = 1e3,
                         overwrite = True);
Ramp_80.py:117  |                 group = hoomd.group.all(),
Ramp_80.py:115  |  gsd = hoomd.dump.gsd(gsd_file,
               period = 1e3,
               group = hoomd.group.all(),
               overwrite = True); 
Ramp_80.py:119  |  meso_gsd = hoomd.dump.gsd(meso_gsd_file,
               period = 1e3,
               group = groupNP_mes,
               overwrite = True); 
Ramp_80.py:130  |  hoomd.run(steps_ramp)
notice(2): -- Neighborlist exclusion statistics -- :
notice(2): Particles with 0 exclusions             : 9004
notice(2): Neighbors included by diameter          : no
notice(2): Neighbors excluded when in the same body: yes
** starting run **
Time 00:00:10 | Step 880231 / 928000 | TPS 222.98 | ETA 00:03:34
Time 00:00:20 | Step 882732 / 928000 | TPS 249.953 | ETA 00:03:01
Time 00:00:30 | Step 885243 / 928000 | TPS 250.991 | ETA 00:02:50
Time 00:00:40 | Step 887721 / 928000 | TPS 247.656 | ETA 00:02:42
Time 00:00:50 | Step 890218 / 928000 | TPS 249.52 | ETA 00:02:31
Time 00:01:00 | Step 892675 / 928000 | TPS 245.571 | ETA 00:02:23
Time 00:01:10 | Step 895178 / 928000 | TPS 250.22 | ETA 00:02:11
Time 00:01:20 | Step 897708 / 928000 | TPS 252.933 | ETA 00:01:59
Time 00:01:30 | Step 900182 / 928000 | TPS 247.395 | ETA 00:01:52
Time 00:01:40 | Step 902680 / 928000 | TPS 249.634 | ETA 00:01:41
Time 00:01:50 | Step 905203 / 928000 | TPS 252.17 | ETA 00:01:30
Time 00:02:00 | Step 907797 / 928000 | TPS 259.366 | ETA 00:01:17
Time 00:02:10 | Step 910369 / 928000 | TPS 257.033 | ETA 00:01:08
Time 00:02:20 | Step 912913 / 928000 | TPS 254.214 | ETA 00:00:59
Time 00:02:30 | Step 915469 / 928000 | TPS 255.594 | ETA 00:00:49
Time 00:02:40 | Step 918082 / 928000 | TPS 261.288 | ETA 00:00:37
Time 00:02:50 | Step 920701 / 928000 | TPS 261.709 | ETA 00:00:27
Time 00:03:00 | Step 923269 / 928000 | TPS 256.62 | ETA 00:00:18
Time 00:03:10 | Step 925828 / 928000 | TPS 255.843 | ETA 00:00:08
Time 00:03:18 | Step 928000 / 928000 | TPS 254.756 | ETA 00:00:00
Average TPS: 251.75
---------
-- Neighborlist stats:
24446 normal updates / 168 forced updates / 0 dangerous updates
n_neigh_min: 37 / n_neigh_max: 135 / n_neigh_avg: 102.307
shortest rebuild period: 1
** run complete **
