[33mWARNING: Skipping user bind, non existent bind point (file) in container: '/usr/bin/nvidia-smi'
[0m[33mWARNING: Skipping user bind, non existent bind point (file) in container: '/usr/bin/nvidia-debugdump'
[0m[33mWARNING: Skipping user bind, non existent bind point (file) in container: '/usr/bin/nvidia-persistenced'
[0m[33mWARNING: Skipping user bind, non existent bind point (file) in container: '/usr/bin/nvidia-cuda-mps-control'
[0m[33mWARNING: Skipping user bind, non existent bind point (file) in container: '/usr/bin/nvidia-cuda-mps-server'
[0mHOOMD-blue 2.3.5 CUDA (8.0) DOUBLE HPMC_MIXED TBB SSE SSE2 
Compiled: 10/08/18
Copyright 2009-2018 The Regents of the University of Michigan.
-----
You are using HOOMD-blue. Please cite the following:
* J A Anderson, C D Lorenz, and A Travesset. "General purpose molecular dynamics
  simulations fully implemented on graphics processing units", Journal of
  Computational Physics 227 (2008) 5342--5359
* J Glaser, T D Nguyen, J A Anderson, P Liu, F Spiga, J A Millan, D C Morse, and
  S C Glotzer. "Strong scaling of general-purpose molecular dynamics simulations
  on GPUs", Computer Physics Communications 192 (2015) 97--107
-----
notice(2): This system is not compute exclusive, using local rank to select GPUs
HOOMD-blue is running on the following GPU(s):
 [0]            Tesla K20m  13 SM_3.5 @ 0.706 GHz, 4743 MiB DRAM
Ramp_80.py:048  |  system = hoomd.init.read_gsd(ramp_file, frame = -1);
notice(2): Group "all" created containing 1004 particles
Ramp_80.py:052  |  rigid = hoomd.md.constrain.rigid();
notice(2): constrain.rigid(): Creating 1000 rigid bodies (adding 8000 particles)
Ramp_80.py:064  |  nl = hoomd.md.nlist.tree();
-----
You are using tree neighbor lists. Please cite the following:
* M P Howard, J A Anderson, A Nikoubashman, S C Glotzer, and A Z
  Panagiotopoulos. "Efficient neighbor list calculation for molecular simulation
  of colloidal systems using graphics processing units", Computer Physics
  Communications 203 (2016) 45--52
-----
Ramp_80.py:066  |  lj = hoomd.md.pair.lj(r_cut = 3.5, nlist = nl)
Ramp_80.py:067  |  lj.set_params(mode = 'shift')
Ramp_80.py:071  |  lj.pair_coeff.set('NP','NP', epsilon = 1.0, sigma = 5.0);
Ramp_80.py:072  |  lj.pair_coeff.set('M' ,'M' , epsilon = 1.0, sigma = 1.0);
Ramp_80.py:073  |  lj.pair_coeff.set('A' ,'A' , epsilon = 1.0, sigma = 1.0);
Ramp_80.py:074  |  lj.pair_coeff.set('M' ,'A' , epsilon = 1.0, sigma = 1.0);
Ramp_80.py:075  |  lj.pair_coeff.set('NP','M' , epsilon = 1.0, sigma = 3.0);
Ramp_80.py:076  |  lj.pair_coeff.set('NP','A' , epsilon = 1.0, sigma = 3.0);
Ramp_80.py:080  |  hoomd.md.integrate.mode_standard(dt = 0.005);
Ramp_80.py:084  |  nanoparticles = hoomd.group.type(name = 'Nano_Particles', type = 'NP');
notice(2): Group "Nano_Particles" created containing 4 particles
Ramp_80.py:085  |  mesogens = hoomd.group.rigid_center();
notice(2): Group "rigid_center" created containing 1000 particles
notice(2): Group "NP_Mes" created containing 1004 particles
Ramp_80.py:092  |  npt = hoomd.md.integrate.npt(group = groupNP_mes, kT = temp, tau = 7.5, tauP = 7.5, P = p_max);
Ramp_80.py:101  |  log = hoomd.analyze.log(filename = log_file,
                         quantities = ['num_particles',
                                     'ndof',
                                     'translational_ndof',
                                     'rotational_ndof',
                                     'potential_energy',
                                     'kinetic_energy',
                                     'translational_kinetic_energy',
                                     'rotational_kinetic_energy',
                                     'temperature',
                                     'pressure',
                                      'volume'],
                         period = 1e3,
                         overwrite = True);
Ramp_80.py:117  |                 group = hoomd.group.all(),
Ramp_80.py:115  |  gsd = hoomd.dump.gsd(gsd_file,
               period = 1e3,
               group = hoomd.group.all(),
               overwrite = True); 
Ramp_80.py:119  |  meso_gsd = hoomd.dump.gsd(meso_gsd_file,
               period = 1e3,
               group = groupNP_mes,
               overwrite = True); 
Ramp_80.py:130  |  hoomd.run(steps_ramp)
notice(2): -- Neighborlist exclusion statistics -- :
notice(2): Particles with 0 exclusions             : 9004
notice(2): Neighbors included by diameter          : no
notice(2): Neighbors excluded when in the same body: yes
** starting run **
Time 00:00:10 | Step 880276 / 928000 | TPS 227.592 | ETA 00:03:29
Time 00:00:20 | Step 882811 / 928000 | TPS 253.469 | ETA 00:02:58
Time 00:00:30 | Step 885356 / 928000 | TPS 254.338 | ETA 00:02:47
Time 00:00:40 | Step 887883 / 928000 | TPS 252.531 | ETA 00:02:38
Time 00:00:50 | Step 890383 / 928000 | TPS 249.928 | ETA 00:02:30
Time 00:01:00 | Step 892903 / 928000 | TPS 251.978 | ETA 00:02:19
Time 00:01:10 | Step 895420 / 928000 | TPS 251.567 | ETA 00:02:09
Time 00:01:20 | Step 897917 / 928000 | TPS 249.649 | ETA 00:02:00
Time 00:01:30 | Step 900378 / 928000 | TPS 245.918 | ETA 00:01:52
Time 00:01:40 | Step 902843 / 928000 | TPS 246.381 | ETA 00:01:42
Time 00:01:50 | Step 905341 / 928000 | TPS 249.776 | ETA 00:01:30
Time 00:02:00 | Step 907853 / 928000 | TPS 251.154 | ETA 00:01:20
Time 00:02:10 | Step 910311 / 928000 | TPS 245.63 | ETA 00:01:12
Time 00:02:20 | Step 912768 / 928000 | TPS 245.627 | ETA 00:01:02
Time 00:02:30 | Step 915225 / 928000 | TPS 245.63 | ETA 00:00:52
Time 00:02:40 | Step 917761 / 928000 | TPS 253.445 | ETA 00:00:40
Time 00:02:50 | Step 920303 / 928000 | TPS 254.032 | ETA 00:00:30
Time 00:03:00 | Step 922858 / 928000 | TPS 255.439 | ETA 00:00:20
Time 00:03:10 | Step 925419 / 928000 | TPS 256.022 | ETA 00:00:10
Time 00:03:20 | Step 928000 / 928000 | TPS 258.74 | ETA 00:00:00
Average TPS: 249.941
---------
-- Neighborlist stats:
24587 normal updates / 168 forced updates / 0 dangerous updates
n_neigh_min: 40 / n_neigh_max: 128 / n_neigh_avg: 98.8689
shortest rebuild period: 1
** run complete **
